VARIABLES="w (rad/s)"
"abs(F	1	1)" "angle(F	1	1)"
"abs(F	1	2)" "angle(F	1	2)"
"abs(F	1	3)" "angle(F	1	3)"
"abs(F	1	4)" "angle(F	1	4)"
"abs(F	1	5)" "angle(F	1	5)"
"abs(F	1	6)" "angle(F	1	6)"
Zone t="FKforce - beta =	0.0",I=	41,F=POINT
0.1	4974.59	-3.13821	0.0781265	1.57705	485524.0	-1.5674	809207.0	-1.56574	1.61856e+06	1.56051	8283.49	0.00510053	
0.1475	10758.2	-3.13422	0.125015	1.58642	479735.0	-1.5634	799559.0	-1.55979	1.59982e+06	1.54829	17914.2	0.0111157	
0.195	18647.9	-3.1287	0.468852	1.59163	471832.0	-1.55788	786387.0	-1.55157	1.57492e+06	1.53117	31051.9	0.0194606	
0.2425	28536.3	-3.12165	1.0787	1.60339	461916.0	-1.55081	769860.0	-1.54106	1.54482e+06	1.50896	47518.0	0.0300853	
0.29	40289.6	-3.11308	2.14251	1.61274	450112.0	-1.54222	750188.0	-1.52826	1.51072e+06	1.48149	67090.0	0.0430246	
0.3375	53750.5	-3.10297	3.77232	1.63037	436569.0	-1.53209	727618.0	-1.51319	1.47403e+06	1.44862	89506.4	0.0582718	
0.385	68740.7	-3.09134	6.36222	1.647	421454.0	-1.52044	702426.0	-1.49583	1.43627e+06	1.41029	114471.0	0.0758285	
0.4325	85064.3	-3.07817	9.88904	1.66653	404948.0	-1.50725	674917.0	-1.47619	1.39907e+06	1.36662	141660.0	0.0956918	
0.48	102511.0	-3.06348	14.7266	1.68831	387248.0	-1.49252	645418.0	-1.45427	1.36405e+06	1.31795	170723.0	0.117865	
0.5275	120861.0	-3.04727	21.0232	1.71248	368557.0	-1.47628	614267.0	-1.43007	1.33272e+06	1.26492	201298.0	0.142343	
0.575	139887.0	-3.02953	28.8471	1.73951	349084.0	-1.4585	581811.0	-1.40358	1.30635e+06	1.20852	233006.0	0.169133	
0.6225	159358.0	-3.01027	38.4962	1.76801	329040.0	-1.4392	548400.0	-1.37481	1.2859e+06	1.15005	265469.0	0.198233	
0.67	179044.0	-2.98949	50.1168	1.79944	308631.0	-1.41838	514381.0	-1.34376	1.27188e+06	1.09107	298307.0	0.229637	
0.7175	198721.0	-2.9672	63.6851	1.83351	288060.0	-1.39605	480089.0	-1.31043	1.2643e+06	1.03327	331150.0	0.26335	
0.765	218168.0	-2.94341	79.4664	1.86926	267521.0	-1.37221	445846.0	-1.27481	1.26271e+06	0.978301	363637.0	0.299372	
0.8125	237180.0	-2.91811	97.2436	1.90756	247196.0	-1.34686	411954.0	-1.23691	1.26625e+06	0.92763	395429.0	0.337702	
0.86	255559.0	-2.89133	117.293	1.94801	227251.0	-1.32002	378692.0	-1.19673	1.27372e+06	0.882408	426204.0	0.378338	
0.9075	273126.0	-2.86306	139.315	1.99059	207838.0	-1.2917	346310.0	-1.15426	1.28374e+06	0.843435	455669.0	0.421282	
0.955	289716.0	-2.83332	163.292	2.0356	189091.0	-1.2619	315033.0	-1.10951	1.29486e+06	0.811161	483557.0	0.466533	
1.0025	305185.0	-2.80213	189.084	2.08306	171125.0	-1.23065	285050.0	-1.06247	1.30569e+06	0.785736	509630.0	0.51409	
1.05	319405.0	-2.7695	216.405	2.13268	154035.0	-1.19796	256521.0	-1.01315	1.31493e+06	0.767076	533683.0	0.563954	
1.0975	332268.0	-2.73545	245.138	2.18472	137898.0	-1.16385	229573.0	-0.96154	1.32147e+06	0.754938	555540.0	0.616123	
1.145	343687.0	-2.70001	274.865	2.23906	122769.0	-1.12834	204301.0	-0.907645	1.32438e+06	0.748977	575061.0	0.670598	
1.1925	353592.0	-2.66319	305.346	2.29555	108687.0	-1.09146	180767.0	-0.851461	1.32297e+06	0.748792	592133.0	0.727378	
1.24	361932.0	-2.62503	336.199	2.35454	95672.0	-1.05324	159007.0	-0.79299	1.31672e+06	0.753961	606673.0	0.786461	
1.2875	368674.0	-2.58557	367.008	2.41568	83727.5	-1.01372	139027.0	-0.73223	1.30533e+06	0.764066	618627.0	0.847847	
1.335	373802.0	-2.54485	397.36	2.47914	72842.3	-0.972932	120811.0	-0.66918	1.28867e+06	0.778701	627967.0	0.911535	
1.3825	377313.0	-2.50291	426.887	2.54492	62991.9	-0.930931	104319.0	-0.603838	1.26677e+06	0.79748	634687.0	0.977525	
1.43	379220.0	-2.45981	455.094	2.61305	54140.7	-0.887769	89492.8	-0.536204	1.23979e+06	0.820041	638805.0	1.04581	
1.4775	379548.0	-2.4156	481.466	2.68344	46243.3	-0.843508	76259.4	-0.466276	1.20801e+06	0.846045	640353.0	1.1164	
1.525	378332.0	-2.37036	505.631	2.75613	39247.0	-0.79822	64532.3	-0.39405	1.1718e+06	0.87517	639385.0	1.18929	
1.5725	375619.0	-2.32418	527.028	2.83113	33093.3	-0.751989	54215.4	-0.319531	1.1316e+06	0.907111	635964.0	1.26447	
1.62	371463.0	-2.27713	545.307	2.90842	27719.8	-0.70491	45206.9	-0.242713	1.0879e+06	0.941576	630167.0	1.34194	
1.6675	365926.0	-2.22935	559.908	2.988	23061.9	-0.657092	37400.4	-0.163593	1.04122e+06	0.978279	622080.0	1.42171	
1.715	359078.0	-2.18094	570.474	3.06989	19054.2	-0.608663	30688.0	-0.0821726	992118.0	1.01694	611798.0	1.50376	
1.7625	350995.0	-2.13206	576.592	-3.12913	15631.8	-0.559771	24962.8	0.00155293	941132.0	1.05726	599422.0	1.58809	
1.81	341758.0	-2.08287	577.85	-3.04261	12731.4	-0.510588	20120.4	0.0875831	888804.0	1.09895	585060.0	1.67471	
1.8575	331455.0	-2.03358	573.937	-2.95383	10292.6	-0.461312	16060.3	0.175923	835662.0	1.1417	568822.0	1.76361	
1.905	320181.0	-1.98442	564.546	-2.86274	8258.1	-0.412178	12687.6	0.266578	782205.0	1.18517	550827.0	1.85478	
1.9525	308034.0	-1.93565	549.407	-2.76935	6574.53	-0.363458	9913.19	0.359552	728906.0	1.22901	531193.0	1.94822	
2.0	295123.0	-1.8876	528.367	-2.67364	5192.86	-0.315473	7655.18	0.454859	676204.0	1.2728	510048.0	2.04392	
