VARIABLES="Time (s)"
"AddedMass 1" "IRF 1"
"AddedMass 2" "IRF 2"
"AddedMass 3" "IRF 3"
"AddedMass 4" "IRF 4"
"AddedMass 5" "IRF 5"
"AddedMass 6" "IRF 6"
Zone t="DoF 1",I=	100,F=POINT
 0.0  -108.031  0.0  60.789  0.0  47.4001  0.0  944.769  0.0  634.542  0.0  733.923  0.0 
 0.1  -108.031  0.0  60.789  0.0  47.4001  0.0  944.769  0.0  634.542  0.0  733.923  0.0 
 0.2  -108.031  0.0  60.789  0.0  47.4001  0.0  944.769  0.0  634.542  0.0  733.923  0.0 
 0.3  -108.031  0.0  60.789  0.0  47.4001  0.0  944.769  0.0  634.542  0.0  733.923  0.0 
 0.4  -108.031  0.0  60.789  0.0  47.4001  0.0  944.769  0.0  634.542  0.0  733.923  0.0 
 0.5  -108.031  0.0  60.789  0.0  47.4001  0.0  944.769  0.0  634.542  0.0  733.923  0.0 
 0.6  -108.031  0.0  60.789  0.0  47.4001  0.0  944.769  0.0  634.542  0.0  733.923  0.0 
 0.7  -108.031  0.0  60.789  0.0  47.4001  0.0  944.769  0.0  634.542  0.0  733.923  0.0 
 0.8  -108.031  0.0  60.789  0.0  47.4001  0.0  944.769  0.0  634.542  0.0  733.923  0.0 
 0.9  -108.031  0.0  60.789  0.0  47.4001  0.0  944.769  0.0  634.542  0.0  733.923  0.0 
 1.0  -108.031  0.0  60.789  0.0  47.4001  0.0  944.769  0.0  634.542  0.0  733.923  0.0 
 1.1  -108.031  0.0  60.789  0.0  47.4001  0.0  944.769  0.0  634.542  0.0  733.923  0.0 
 1.2  -108.031  0.0  60.789  0.0  47.4001  0.0  944.769  0.0  634.542  0.0  733.923  0.0 
 1.3  -108.031  0.0  60.789  0.0  47.4001  0.0  944.769  0.0  634.542  0.0  733.923  0.0 
 1.4  -108.031  0.0  60.789  0.0  47.4001  0.0  944.769  0.0  634.542  0.0  733.923  0.0 
 1.5  -108.031  0.0  60.789  0.0  47.4001  0.0  944.769  0.0  634.542  0.0  733.923  0.0 
 1.6  -108.031  0.0  60.789  0.0  47.4001  0.0  944.769  0.0  634.542  0.0  733.923  0.0 
 1.7  -108.031  0.0  60.789  0.0  47.4001  0.0  944.769  0.0  634.542  0.0  733.923  0.0 
 1.8  -108.031  0.0  60.789  0.0  47.4001  0.0  944.769  0.0  634.542  0.0  733.923  0.0 
 1.9  -108.031  0.0  60.789  0.0  47.4001  0.0  944.769  0.0  634.542  0.0  733.923  0.0 
 2.0  -108.031  0.0  60.789  0.0  47.4001  0.0  944.769  0.0  634.542  0.0  733.923  0.0 
 2.1  -108.031  0.0  60.789  0.0  47.4001  0.0  944.769  0.0  634.542  0.0  733.923  0.0 
 2.2  -108.031  0.0  60.789  0.0  47.4001  0.0  944.769  0.0  634.542  0.0  733.923  0.0 
 2.3  -108.031  0.0  60.789  0.0  47.4001  0.0  944.769  0.0  634.542  0.0  733.923  0.0 
 2.4  -108.031  0.0  60.789  0.0  47.4001  0.0  944.769  0.0  634.542  0.0  733.923  0.0 
 2.5  -108.031  0.0  60.789  0.0  47.4001  0.0  944.769  0.0  634.542  0.0  733.923  0.0 
 2.6  -108.031  0.0  60.789  0.0  47.4001  0.0  944.769  0.0  634.542  0.0  733.923  0.0 
 2.7  -108.031  0.0  60.789  0.0  47.4001  0.0  944.769  0.0  634.542  0.0  733.923  0.0 
 2.8  -108.031  0.0  60.789  0.0  47.4001  0.0  944.769  0.0  634.542  0.0  733.923  0.0 
 2.9  -108.031  0.0  60.789  0.0  47.4001  0.0  944.769  0.0  634.542  0.0  733.923  0.0 
 3.0  -108.031  0.0  60.789  0.0  47.4001  0.0  944.769  0.0  634.542  0.0  733.923  0.0 
 3.1  -108.031  0.0  60.789  0.0  47.4001  0.0  944.769  0.0  634.542  0.0  733.923  0.0 
 3.2  -108.031  0.0  60.789  0.0  47.4001  0.0  944.769  0.0  634.542  0.0  733.923  0.0 
 3.3  -108.031  0.0  60.789  0.0  47.4001  0.0  944.769  0.0  634.542  0.0  733.923  0.0 
 3.4  -108.031  0.0  60.789  0.0  47.4001  0.0  944.769  0.0  634.542  0.0  733.923  0.0 
 3.5  -108.031  0.0  60.789  0.0  47.4001  0.0  944.769  0.0  634.542  0.0  733.923  0.0 
 3.6  -108.031  0.0  60.789  0.0  47.4001  0.0  944.769  0.0  634.542  0.0  733.923  0.0 
 3.7  -108.031  0.0  60.789  0.0  47.4001  0.0  944.769  0.0  634.542  0.0  733.923  0.0 
 3.8  -108.031  0.0  60.789  0.0  47.4001  0.0  944.769  0.0  634.542  0.0  733.923  0.0 
 3.9  -108.031  0.0  60.789  0.0  47.4001  0.0  944.769  0.0  634.542  0.0  733.923  0.0 
 4.0  -108.031  0.0  60.789  0.0  47.4001  0.0  944.769  0.0  634.542  0.0  733.923  0.0 
 4.1  -108.031  0.0  60.789  0.0  47.4001  0.0  944.769  0.0  634.542  0.0  733.923  0.0 
 4.2  -108.031  0.0  60.789  0.0  47.4001  0.0  944.769  0.0  634.542  0.0  733.923  0.0 
 4.3  -108.031  0.0  60.789  0.0  47.4001  0.0  944.769  0.0  634.542  0.0  733.923  0.0 
 4.4  -108.031  0.0  60.789  0.0  47.4001  0.0  944.769  0.0  634.542  0.0  733.923  0.0 
 4.5  -108.031  0.0  60.789  0.0  47.4001  0.0  944.769  0.0  634.542  0.0  733.923  0.0 
 4.6  -108.031  0.0  60.789  0.0  47.4001  0.0  944.769  0.0  634.542  0.0  733.923  0.0 
 4.7  -108.031  0.0  60.789  0.0  47.4001  0.0  944.769  0.0  634.542  0.0  733.923  0.0 
 4.8  -108.031  0.0  60.789  0.0  47.4001  0.0  944.769  0.0  634.542  0.0  733.923  0.0 
 4.9  -108.031  0.0  60.789  0.0  47.4001  0.0  944.769  0.0  634.542  0.0  733.923  0.0 
 5.0  -108.031  0.0  60.789  0.0  47.4001  0.0  944.769  0.0  634.542  0.0  733.923  0.0 
 5.1  -108.031  0.0  60.789  0.0  47.4001  0.0  944.769  0.0  634.542  0.0  733.923  0.0 
 5.2  -108.031  0.0  60.789  0.0  47.4001  0.0  944.769  0.0  634.542  0.0  733.923  0.0 
 5.3  -108.031  0.0  60.789  0.0  47.4001  0.0  944.769  0.0  634.542  0.0  733.923  0.0 
 5.4  -108.031  0.0  60.789  0.0  47.4001  0.0  944.769  0.0  634.542  0.0  733.923  0.0 
 5.5  -108.031  0.0  60.789  0.0  47.4001  0.0  944.769  0.0  634.542  0.0  733.923  0.0 
 5.6  -108.031  0.0  60.789  0.0  47.4001  0.0  944.769  0.0  634.542  0.0  733.923  0.0 
 5.7  -108.031  0.0  60.789  0.0  47.4001  0.0  944.769  0.0  634.542  0.0  733.923  0.0 
 5.8  -108.031  0.0  60.789  0.0  47.4001  0.0  944.769  0.0  634.542  0.0  733.923  0.0 
 5.9  -108.031  0.0  60.789  0.0  47.4001  0.0  944.769  0.0  634.542  0.0  733.923  0.0 
 6.0  -108.031  0.0  60.789  0.0  47.4001  0.0  944.769  0.0  634.542  0.0  733.923  0.0 
 6.1  -108.031  0.0  60.789  0.0  47.4001  0.0  944.769  0.0  634.542  0.0  733.923  0.0 
 6.2  -108.031  0.0  60.789  0.0  47.4001  0.0  944.769  0.0  634.542  0.0  733.923  0.0 
 6.3  -108.031  0.0  60.789  0.0  47.4001  0.0  944.769  0.0  634.542  0.0  733.923  0.0 
 6.4  -108.031  0.0  60.789  0.0  47.4001  0.0  944.769  0.0  634.542  0.0  733.923  0.0 
 6.5  -108.031  0.0  60.789  0.0  47.4001  0.0  944.769  0.0  634.542  0.0  733.923  0.0 
 6.6  -108.031  0.0  60.789  0.0  47.4001  0.0  944.769  0.0  634.542  0.0  733.923  0.0 
 6.7  -108.031  0.0  60.789  0.0  47.4001  0.0  944.769  0.0  634.542  0.0  733.923  0.0 
 6.8  -108.031  0.0  60.789  0.0  47.4001  0.0  944.769  0.0  634.542  0.0  733.923  0.0 
 6.9  -108.031  0.0  60.789  0.0  47.4001  0.0  944.769  0.0  634.542  0.0  733.923  0.0 
 7.0  -108.031  0.0  60.789  0.0  47.4001  0.0  944.769  0.0  634.542  0.0  733.923  0.0 
 7.1  -108.031  0.0  60.789  0.0  47.4001  0.0  944.769  0.0  634.542  0.0  733.923  0.0 
 7.2  -108.031  0.0  60.789  0.0  47.4001  0.0  944.769  0.0  634.542  0.0  733.923  0.0 
 7.3  -108.031  0.0  60.789  0.0  47.4001  0.0  944.769  0.0  634.542  0.0  733.923  0.0 
 7.4  -108.031  0.0  60.789  0.0  47.4001  0.0  944.769  0.0  634.542  0.0  733.923  0.0 
 7.5  -108.031  0.0  60.789  0.0  47.4001  0.0  944.769  0.0  634.542  0.0  733.923  0.0 
 7.6  -108.031  0.0  60.789  0.0  47.4001  0.0  944.769  0.0  634.542  0.0  733.923  0.0 
 7.7  -108.031  0.0  60.789  0.0  47.4001  0.0  944.769  0.0  634.542  0.0  733.923  0.0 
 7.8  -108.031  0.0  60.789  0.0  47.4001  0.0  944.769  0.0  634.542  0.0  733.923  0.0 
 7.9  -108.031  0.0  60.789  0.0  47.4001  0.0  944.769  0.0  634.542  0.0  733.923  0.0 
 8.0  -108.031  0.0  60.789  0.0  47.4001  0.0  944.769  0.0  634.542  0.0  733.923  0.0 
 8.1  -108.031  0.0  60.789  0.0  47.4001  0.0  944.769  0.0  634.542  0.0  733.923  0.0 
 8.2  -108.031  0.0  60.789  0.0  47.4001  0.0  944.769  0.0  634.542  0.0  733.923  0.0 
 8.3  -108.031  0.0  60.789  0.0  47.4001  0.0  944.769  0.0  634.542  0.0  733.923  0.0 
 8.4  -108.031  0.0  60.789  0.0  47.4001  0.0  944.769  0.0  634.542  0.0  733.923  0.0 
 8.5  -108.031  0.0  60.789  0.0  47.4001  0.0  944.769  0.0  634.542  0.0  733.923  0.0 
 8.6  -108.031  0.0  60.789  0.0  47.4001  0.0  944.769  0.0  634.542  0.0  733.923  0.0 
 8.7  -108.031  0.0  60.789  0.0  47.4001  0.0  944.769  0.0  634.542  0.0  733.923  0.0 
 8.8  -108.031  0.0  60.789  0.0  47.4001  0.0  944.769  0.0  634.542  0.0  733.923  0.0 
 8.9  -108.031  0.0  60.789  0.0  47.4001  0.0  944.769  0.0  634.542  0.0  733.923  0.0 
 9.0  -108.031  0.0  60.789  0.0  47.4001  0.0  944.769  0.0  634.542  0.0  733.923  0.0 
 9.1  -108.031  0.0  60.789  0.0  47.4001  0.0  944.769  0.0  634.542  0.0  733.923  0.0 
 9.2  -108.031  0.0  60.789  0.0  47.4001  0.0  944.769  0.0  634.542  0.0  733.923  0.0 
 9.3  -108.031  0.0  60.789  0.0  47.4001  0.0  944.769  0.0  634.542  0.0  733.923  0.0 
 9.4  -108.031  0.0  60.789  0.0  47.4001  0.0  944.769  0.0  634.542  0.0  733.923  0.0 
 9.5  -108.031  0.0  60.789  0.0  47.4001  0.0  944.769  0.0  634.542  0.0  733.923  0.0 
 9.6  -108.031  0.0  60.789  0.0  47.4001  0.0  944.769  0.0  634.542  0.0  733.923  0.0 
 9.7  -108.031  0.0  60.789  0.0  47.4001  0.0  944.769  0.0  634.542  0.0  733.923  0.0 
 9.8  -108.031  0.0  60.789  0.0  47.4001  0.0  944.769  0.0  634.542  0.0  733.923  0.0 
 9.9  -108.031  0.0  60.789  0.0  47.4001  0.0  944.769  0.0  634.542  0.0  733.923  0.0 
Zone t="DoF 2",I=	100,F=POINT
 0.0  58.0824  0.0  -76.8175  0.0  11.6645  0.0  -579.114  0.0  -751.984  0.0  -16.8831  0.0 
 0.1  58.0824  0.0  -76.8175  0.0  11.6645  0.0  -579.114  0.0  -751.984  0.0  -16.8831  0.0 
 0.2  58.0824  0.0  -76.8175  0.0  11.6645  0.0  -579.114  0.0  -751.984  0.0  -16.8831  0.0 
 0.3  58.0824  0.0  -76.8175  0.0  11.6645  0.0  -579.114  0.0  -751.984  0.0  -16.8831  0.0 
 0.4  58.0824  0.0  -76.8175  0.0  11.6645  0.0  -579.114  0.0  -751.984  0.0  -16.8831  0.0 
 0.5  58.0824  0.0  -76.8175  0.0  11.6645  0.0  -579.114  0.0  -751.984  0.0  -16.8831  0.0 
 0.6  58.0824  0.0  -76.8175  0.0  11.6645  0.0  -579.114  0.0  -751.984  0.0  -16.8831  0.0 
 0.7  58.0824  0.0  -76.8175  0.0  11.6645  0.0  -579.114  0.0  -751.984  0.0  -16.8831  0.0 
 0.8  58.0824  0.0  -76.8175  0.0  11.6645  0.0  -579.114  0.0  -751.984  0.0  -16.8831  0.0 
 0.9  58.0824  0.0  -76.8175  0.0  11.6645  0.0  -579.114  0.0  -751.984  0.0  -16.8831  0.0 
 1.0  58.0824  0.0  -76.8175  0.0  11.6645  0.0  -579.114  0.0  -751.984  0.0  -16.8831  0.0 
 1.1  58.0824  0.0  -76.8175  0.0  11.6645  0.0  -579.114  0.0  -751.984  0.0  -16.8831  0.0 
 1.2  58.0824  0.0  -76.8175  0.0  11.6645  0.0  -579.114  0.0  -751.984  0.0  -16.8831  0.0 
 1.3  58.0824  0.0  -76.8175  0.0  11.6645  0.0  -579.114  0.0  -751.984  0.0  -16.8831  0.0 
 1.4  58.0824  0.0  -76.8175  0.0  11.6645  0.0  -579.114  0.0  -751.984  0.0  -16.8831  0.0 
 1.5  58.0824  0.0  -76.8175  0.0  11.6645  0.0  -579.114  0.0  -751.984  0.0  -16.8831  0.0 
 1.6  58.0824  0.0  -76.8175  0.0  11.6645  0.0  -579.114  0.0  -751.984  0.0  -16.8831  0.0 
 1.7  58.0824  0.0  -76.8175  0.0  11.6645  0.0  -579.114  0.0  -751.984  0.0  -16.8831  0.0 
 1.8  58.0824  0.0  -76.8175  0.0  11.6645  0.0  -579.114  0.0  -751.984  0.0  -16.8831  0.0 
 1.9  58.0824  0.0  -76.8175  0.0  11.6645  0.0  -579.114  0.0  -751.984  0.0  -16.8831  0.0 
 2.0  58.0824  0.0  -76.8175  0.0  11.6645  0.0  -579.114  0.0  -751.984  0.0  -16.8831  0.0 
 2.1  58.0824  0.0  -76.8175  0.0  11.6645  0.0  -579.114  0.0  -751.984  0.0  -16.8831  0.0 
 2.2  58.0824  0.0  -76.8175  0.0  11.6645  0.0  -579.114  0.0  -751.984  0.0  -16.8831  0.0 
 2.3  58.0824  0.0  -76.8175  0.0  11.6645  0.0  -579.114  0.0  -751.984  0.0  -16.8831  0.0 
 2.4  58.0824  0.0  -76.8175  0.0  11.6645  0.0  -579.114  0.0  -751.984  0.0  -16.8831  0.0 
 2.5  58.0824  0.0  -76.8175  0.0  11.6645  0.0  -579.114  0.0  -751.984  0.0  -16.8831  0.0 
 2.6  58.0824  0.0  -76.8175  0.0  11.6645  0.0  -579.114  0.0  -751.984  0.0  -16.8831  0.0 
 2.7  58.0824  0.0  -76.8175  0.0  11.6645  0.0  -579.114  0.0  -751.984  0.0  -16.8831  0.0 
 2.8  58.0824  0.0  -76.8175  0.0  11.6645  0.0  -579.114  0.0  -751.984  0.0  -16.8831  0.0 
 2.9  58.0824  0.0  -76.8175  0.0  11.6645  0.0  -579.114  0.0  -751.984  0.0  -16.8831  0.0 
 3.0  58.0824  0.0  -76.8175  0.0  11.6645  0.0  -579.114  0.0  -751.984  0.0  -16.8831  0.0 
 3.1  58.0824  0.0  -76.8175  0.0  11.6645  0.0  -579.114  0.0  -751.984  0.0  -16.8831  0.0 
 3.2  58.0824  0.0  -76.8175  0.0  11.6645  0.0  -579.114  0.0  -751.984  0.0  -16.8831  0.0 
 3.3  58.0824  0.0  -76.8175  0.0  11.6645  0.0  -579.114  0.0  -751.984  0.0  -16.8831  0.0 
 3.4  58.0824  0.0  -76.8175  0.0  11.6645  0.0  -579.114  0.0  -751.984  0.0  -16.8831  0.0 
 3.5  58.0824  0.0  -76.8175  0.0  11.6645  0.0  -579.114  0.0  -751.984  0.0  -16.8831  0.0 
 3.6  58.0824  0.0  -76.8175  0.0  11.6645  0.0  -579.114  0.0  -751.984  0.0  -16.8831  0.0 
 3.7  58.0824  0.0  -76.8175  0.0  11.6645  0.0  -579.114  0.0  -751.984  0.0  -16.8831  0.0 
 3.8  58.0824  0.0  -76.8175  0.0  11.6645  0.0  -579.114  0.0  -751.984  0.0  -16.8831  0.0 
 3.9  58.0824  0.0  -76.8175  0.0  11.6645  0.0  -579.114  0.0  -751.984  0.0  -16.8831  0.0 
 4.0  58.0824  0.0  -76.8175  0.0  11.6645  0.0  -579.114  0.0  -751.984  0.0  -16.8831  0.0 
 4.1  58.0824  0.0  -76.8175  0.0  11.6645  0.0  -579.114  0.0  -751.984  0.0  -16.8831  0.0 
 4.2  58.0824  0.0  -76.8175  0.0  11.6645  0.0  -579.114  0.0  -751.984  0.0  -16.8831  0.0 
 4.3  58.0824  0.0  -76.8175  0.0  11.6645  0.0  -579.114  0.0  -751.984  0.0  -16.8831  0.0 
 4.4  58.0824  0.0  -76.8175  0.0  11.6645  0.0  -579.114  0.0  -751.984  0.0  -16.8831  0.0 
 4.5  58.0824  0.0  -76.8175  0.0  11.6645  0.0  -579.114  0.0  -751.984  0.0  -16.8831  0.0 
 4.6  58.0824  0.0  -76.8175  0.0  11.6645  0.0  -579.114  0.0  -751.984  0.0  -16.8831  0.0 
 4.7  58.0824  0.0  -76.8175  0.0  11.6645  0.0  -579.114  0.0  -751.984  0.0  -16.8831  0.0 
 4.8  58.0824  0.0  -76.8175  0.0  11.6645  0.0  -579.114  0.0  -751.984  0.0  -16.8831  0.0 
 4.9  58.0824  0.0  -76.8175  0.0  11.6645  0.0  -579.114  0.0  -751.984  0.0  -16.8831  0.0 
 5.0  58.0824  0.0  -76.8175  0.0  11.6645  0.0  -579.114  0.0  -751.984  0.0  -16.8831  0.0 
 5.1  58.0824  0.0  -76.8175  0.0  11.6645  0.0  -579.114  0.0  -751.984  0.0  -16.8831  0.0 
 5.2  58.0824  0.0  -76.8175  0.0  11.6645  0.0  -579.114  0.0  -751.984  0.0  -16.8831  0.0 
 5.3  58.0824  0.0  -76.8175  0.0  11.6645  0.0  -579.114  0.0  -751.984  0.0  -16.8831  0.0 
 5.4  58.0824  0.0  -76.8175  0.0  11.6645  0.0  -579.114  0.0  -751.984  0.0  -16.8831  0.0 
 5.5  58.0824  0.0  -76.8175  0.0  11.6645  0.0  -579.114  0.0  -751.984  0.0  -16.8831  0.0 
 5.6  58.0824  0.0  -76.8175  0.0  11.6645  0.0  -579.114  0.0  -751.984  0.0  -16.8831  0.0 
 5.7  58.0824  0.0  -76.8175  0.0  11.6645  0.0  -579.114  0.0  -751.984  0.0  -16.8831  0.0 
 5.8  58.0824  0.0  -76.8175  0.0  11.6645  0.0  -579.114  0.0  -751.984  0.0  -16.8831  0.0 
 5.9  58.0824  0.0  -76.8175  0.0  11.6645  0.0  -579.114  0.0  -751.984  0.0  -16.8831  0.0 
 6.0  58.0824  0.0  -76.8175  0.0  11.6645  0.0  -579.114  0.0  -751.984  0.0  -16.8831  0.0 
 6.1  58.0824  0.0  -76.8175  0.0  11.6645  0.0  -579.114  0.0  -751.984  0.0  -16.8831  0.0 
 6.2  58.0824  0.0  -76.8175  0.0  11.6645  0.0  -579.114  0.0  -751.984  0.0  -16.8831  0.0 
 6.3  58.0824  0.0  -76.8175  0.0  11.6645  0.0  -579.114  0.0  -751.984  0.0  -16.8831  0.0 
 6.4  58.0824  0.0  -76.8175  0.0  11.6645  0.0  -579.114  0.0  -751.984  0.0  -16.8831  0.0 
 6.5  58.0824  0.0  -76.8175  0.0  11.6645  0.0  -579.114  0.0  -751.984  0.0  -16.8831  0.0 
 6.6  58.0824  0.0  -76.8175  0.0  11.6645  0.0  -579.114  0.0  -751.984  0.0  -16.8831  0.0 
 6.7  58.0824  0.0  -76.8175  0.0  11.6645  0.0  -579.114  0.0  -751.984  0.0  -16.8831  0.0 
 6.8  58.0824  0.0  -76.8175  0.0  11.6645  0.0  -579.114  0.0  -751.984  0.0  -16.8831  0.0 
 6.9  58.0824  0.0  -76.8175  0.0  11.6645  0.0  -579.114  0.0  -751.984  0.0  -16.8831  0.0 
 7.0  58.0824  0.0  -76.8175  0.0  11.6645  0.0  -579.114  0.0  -751.984  0.0  -16.8831  0.0 
 7.1  58.0824  0.0  -76.8175  0.0  11.6645  0.0  -579.114  0.0  -751.984  0.0  -16.8831  0.0 
 7.2  58.0824  0.0  -76.8175  0.0  11.6645  0.0  -579.114  0.0  -751.984  0.0  -16.8831  0.0 
 7.3  58.0824  0.0  -76.8175  0.0  11.6645  0.0  -579.114  0.0  -751.984  0.0  -16.8831  0.0 
 7.4  58.0824  0.0  -76.8175  0.0  11.6645  0.0  -579.114  0.0  -751.984  0.0  -16.8831  0.0 
 7.5  58.0824  0.0  -76.8175  0.0  11.6645  0.0  -579.114  0.0  -751.984  0.0  -16.8831  0.0 
 7.6  58.0824  0.0  -76.8175  0.0  11.6645  0.0  -579.114  0.0  -751.984  0.0  -16.8831  0.0 
 7.7  58.0824  0.0  -76.8175  0.0  11.6645  0.0  -579.114  0.0  -751.984  0.0  -16.8831  0.0 
 7.8  58.0824  0.0  -76.8175  0.0  11.6645  0.0  -579.114  0.0  -751.984  0.0  -16.8831  0.0 
 7.9  58.0824  0.0  -76.8175  0.0  11.6645  0.0  -579.114  0.0  -751.984  0.0  -16.8831  0.0 
 8.0  58.0824  0.0  -76.8175  0.0  11.6645  0.0  -579.114  0.0  -751.984  0.0  -16.8831  0.0 
 8.1  58.0824  0.0  -76.8175  0.0  11.6645  0.0  -579.114  0.0  -751.984  0.0  -16.8831  0.0 
 8.2  58.0824  0.0  -76.8175  0.0  11.6645  0.0  -579.114  0.0  -751.984  0.0  -16.8831  0.0 
 8.3  58.0824  0.0  -76.8175  0.0  11.6645  0.0  -579.114  0.0  -751.984  0.0  -16.8831  0.0 
 8.4  58.0824  0.0  -76.8175  0.0  11.6645  0.0  -579.114  0.0  -751.984  0.0  -16.8831  0.0 
 8.5  58.0824  0.0  -76.8175  0.0  11.6645  0.0  -579.114  0.0  -751.984  0.0  -16.8831  0.0 
 8.6  58.0824  0.0  -76.8175  0.0  11.6645  0.0  -579.114  0.0  -751.984  0.0  -16.8831  0.0 
 8.7  58.0824  0.0  -76.8175  0.0  11.6645  0.0  -579.114  0.0  -751.984  0.0  -16.8831  0.0 
 8.8  58.0824  0.0  -76.8175  0.0  11.6645  0.0  -579.114  0.0  -751.984  0.0  -16.8831  0.0 
 8.9  58.0824  0.0  -76.8175  0.0  11.6645  0.0  -579.114  0.0  -751.984  0.0  -16.8831  0.0 
 9.0  58.0824  0.0  -76.8175  0.0  11.6645  0.0  -579.114  0.0  -751.984  0.0  -16.8831  0.0 
 9.1  58.0824  0.0  -76.8175  0.0  11.6645  0.0  -579.114  0.0  -751.984  0.0  -16.8831  0.0 
 9.2  58.0824  0.0  -76.8175  0.0  11.6645  0.0  -579.114  0.0  -751.984  0.0  -16.8831  0.0 
 9.3  58.0824  0.0  -76.8175  0.0  11.6645  0.0  -579.114  0.0  -751.984  0.0  -16.8831  0.0 
 9.4  58.0824  0.0  -76.8175  0.0  11.6645  0.0  -579.114  0.0  -751.984  0.0  -16.8831  0.0 
 9.5  58.0824  0.0  -76.8175  0.0  11.6645  0.0  -579.114  0.0  -751.984  0.0  -16.8831  0.0 
 9.6  58.0824  0.0  -76.8175  0.0  11.6645  0.0  -579.114  0.0  -751.984  0.0  -16.8831  0.0 
 9.7  58.0824  0.0  -76.8175  0.0  11.6645  0.0  -579.114  0.0  -751.984  0.0  -16.8831  0.0 
 9.8  58.0824  0.0  -76.8175  0.0  11.6645  0.0  -579.114  0.0  -751.984  0.0  -16.8831  0.0 
 9.9  58.0824  0.0  -76.8175  0.0  11.6645  0.0  -579.114  0.0  -751.984  0.0  -16.8831  0.0 
Zone t="DoF 3",I=	100,F=POINT
 0.0  9.30204  0.0  -1.11887  0.0  25.0571  0.0  21.1378  0.0  -116.905  0.0  -25.4817  0.0 
 0.1  9.30204  0.0  -1.11887  0.0  25.0571  0.0  21.1378  0.0  -116.905  0.0  -25.4817  0.0 
 0.2  9.30204  0.0  -1.11887  0.0  25.0571  0.0  21.1378  0.0  -116.905  0.0  -25.4817  0.0 
 0.3  9.30204  0.0  -1.11887  0.0  25.0571  0.0  21.1378  0.0  -116.905  0.0  -25.4817  0.0 
 0.4  9.30204  0.0  -1.11887  0.0  25.0571  0.0  21.1378  0.0  -116.905  0.0  -25.4817  0.0 
 0.5  9.30204  0.0  -1.11887  0.0  25.0571  0.0  21.1378  0.0  -116.905  0.0  -25.4817  0.0 
 0.6  9.30204  0.0  -1.11887  0.0  25.0571  0.0  21.1378  0.0  -116.905  0.0  -25.4817  0.0 
 0.7  9.30204  0.0  -1.11887  0.0  25.0571  0.0  21.1378  0.0  -116.905  0.0  -25.4817  0.0 
 0.8  9.30204  0.0  -1.11887  0.0  25.0571  0.0  21.1378  0.0  -116.905  0.0  -25.4817  0.0 
 0.9  9.30204  0.0  -1.11887  0.0  25.0571  0.0  21.1378  0.0  -116.905  0.0  -25.4817  0.0 
 1.0  9.30204  0.0  -1.11887  0.0  25.0571  0.0  21.1378  0.0  -116.905  0.0  -25.4817  0.0 
 1.1  9.30204  0.0  -1.11887  0.0  25.0571  0.0  21.1378  0.0  -116.905  0.0  -25.4817  0.0 
 1.2  9.30204  0.0  -1.11887  0.0  25.0571  0.0  21.1378  0.0  -116.905  0.0  -25.4817  0.0 
 1.3  9.30204  0.0  -1.11887  0.0  25.0571  0.0  21.1378  0.0  -116.905  0.0  -25.4817  0.0 
 1.4  9.30204  0.0  -1.11887  0.0  25.0571  0.0  21.1378  0.0  -116.905  0.0  -25.4817  0.0 
 1.5  9.30204  0.0  -1.11887  0.0  25.0571  0.0  21.1378  0.0  -116.905  0.0  -25.4817  0.0 
 1.6  9.30204  0.0  -1.11887  0.0  25.0571  0.0  21.1378  0.0  -116.905  0.0  -25.4817  0.0 
 1.7  9.30204  0.0  -1.11887  0.0  25.0571  0.0  21.1378  0.0  -116.905  0.0  -25.4817  0.0 
 1.8  9.30204  0.0  -1.11887  0.0  25.0571  0.0  21.1378  0.0  -116.905  0.0  -25.4817  0.0 
 1.9  9.30204  0.0  -1.11887  0.0  25.0571  0.0  21.1378  0.0  -116.905  0.0  -25.4817  0.0 
 2.0  9.30204  0.0  -1.11887  0.0  25.0571  0.0  21.1378  0.0  -116.905  0.0  -25.4817  0.0 
 2.1  9.30204  0.0  -1.11887  0.0  25.0571  0.0  21.1378  0.0  -116.905  0.0  -25.4817  0.0 
 2.2  9.30204  0.0  -1.11887  0.0  25.0571  0.0  21.1378  0.0  -116.905  0.0  -25.4817  0.0 
 2.3  9.30204  0.0  -1.11887  0.0  25.0571  0.0  21.1378  0.0  -116.905  0.0  -25.4817  0.0 
 2.4  9.30204  0.0  -1.11887  0.0  25.0571  0.0  21.1378  0.0  -116.905  0.0  -25.4817  0.0 
 2.5  9.30204  0.0  -1.11887  0.0  25.0571  0.0  21.1378  0.0  -116.905  0.0  -25.4817  0.0 
 2.6  9.30204  0.0  -1.11887  0.0  25.0571  0.0  21.1378  0.0  -116.905  0.0  -25.4817  0.0 
 2.7  9.30204  0.0  -1.11887  0.0  25.0571  0.0  21.1378  0.0  -116.905  0.0  -25.4817  0.0 
 2.8  9.30204  0.0  -1.11887  0.0  25.0571  0.0  21.1378  0.0  -116.905  0.0  -25.4817  0.0 
 2.9  9.30204  0.0  -1.11887  0.0  25.0571  0.0  21.1378  0.0  -116.905  0.0  -25.4817  0.0 
 3.0  9.30204  0.0  -1.11887  0.0  25.0571  0.0  21.1378  0.0  -116.905  0.0  -25.4817  0.0 
 3.1  9.30204  0.0  -1.11887  0.0  25.0571  0.0  21.1378  0.0  -116.905  0.0  -25.4817  0.0 
 3.2  9.30204  0.0  -1.11887  0.0  25.0571  0.0  21.1378  0.0  -116.905  0.0  -25.4817  0.0 
 3.3  9.30204  0.0  -1.11887  0.0  25.0571  0.0  21.1378  0.0  -116.905  0.0  -25.4817  0.0 
 3.4  9.30204  0.0  -1.11887  0.0  25.0571  0.0  21.1378  0.0  -116.905  0.0  -25.4817  0.0 
 3.5  9.30204  0.0  -1.11887  0.0  25.0571  0.0  21.1378  0.0  -116.905  0.0  -25.4817  0.0 
 3.6  9.30204  0.0  -1.11887  0.0  25.0571  0.0  21.1378  0.0  -116.905  0.0  -25.4817  0.0 
 3.7  9.30204  0.0  -1.11887  0.0  25.0571  0.0  21.1378  0.0  -116.905  0.0  -25.4817  0.0 
 3.8  9.30204  0.0  -1.11887  0.0  25.0571  0.0  21.1378  0.0  -116.905  0.0  -25.4817  0.0 
 3.9  9.30204  0.0  -1.11887  0.0  25.0571  0.0  21.1378  0.0  -116.905  0.0  -25.4817  0.0 
 4.0  9.30204  0.0  -1.11887  0.0  25.0571  0.0  21.1378  0.0  -116.905  0.0  -25.4817  0.0 
 4.1  9.30204  0.0  -1.11887  0.0  25.0571  0.0  21.1378  0.0  -116.905  0.0  -25.4817  0.0 
 4.2  9.30204  0.0  -1.11887  0.0  25.0571  0.0  21.1378  0.0  -116.905  0.0  -25.4817  0.0 
 4.3  9.30204  0.0  -1.11887  0.0  25.0571  0.0  21.1378  0.0  -116.905  0.0  -25.4817  0.0 
 4.4  9.30204  0.0  -1.11887  0.0  25.0571  0.0  21.1378  0.0  -116.905  0.0  -25.4817  0.0 
 4.5  9.30204  0.0  -1.11887  0.0  25.0571  0.0  21.1378  0.0  -116.905  0.0  -25.4817  0.0 
 4.6  9.30204  0.0  -1.11887  0.0  25.0571  0.0  21.1378  0.0  -116.905  0.0  -25.4817  0.0 
 4.7  9.30204  0.0  -1.11887  0.0  25.0571  0.0  21.1378  0.0  -116.905  0.0  -25.4817  0.0 
 4.8  9.30204  0.0  -1.11887  0.0  25.0571  0.0  21.1378  0.0  -116.905  0.0  -25.4817  0.0 
 4.9  9.30204  0.0  -1.11887  0.0  25.0571  0.0  21.1378  0.0  -116.905  0.0  -25.4817  0.0 
 5.0  9.30204  0.0  -1.11887  0.0  25.0571  0.0  21.1378  0.0  -116.905  0.0  -25.4817  0.0 
 5.1  9.30204  0.0  -1.11887  0.0  25.0571  0.0  21.1378  0.0  -116.905  0.0  -25.4817  0.0 
 5.2  9.30204  0.0  -1.11887  0.0  25.0571  0.0  21.1378  0.0  -116.905  0.0  -25.4817  0.0 
 5.3  9.30204  0.0  -1.11887  0.0  25.0571  0.0  21.1378  0.0  -116.905  0.0  -25.4817  0.0 
 5.4  9.30204  0.0  -1.11887  0.0  25.0571  0.0  21.1378  0.0  -116.905  0.0  -25.4817  0.0 
 5.5  9.30204  0.0  -1.11887  0.0  25.0571  0.0  21.1378  0.0  -116.905  0.0  -25.4817  0.0 
 5.6  9.30204  0.0  -1.11887  0.0  25.0571  0.0  21.1378  0.0  -116.905  0.0  -25.4817  0.0 
 5.7  9.30204  0.0  -1.11887  0.0  25.0571  0.0  21.1378  0.0  -116.905  0.0  -25.4817  0.0 
 5.8  9.30204  0.0  -1.11887  0.0  25.0571  0.0  21.1378  0.0  -116.905  0.0  -25.4817  0.0 
 5.9  9.30204  0.0  -1.11887  0.0  25.0571  0.0  21.1378  0.0  -116.905  0.0  -25.4817  0.0 
 6.0  9.30204  0.0  -1.11887  0.0  25.0571  0.0  21.1378  0.0  -116.905  0.0  -25.4817  0.0 
 6.1  9.30204  0.0  -1.11887  0.0  25.0571  0.0  21.1378  0.0  -116.905  0.0  -25.4817  0.0 
 6.2  9.30204  0.0  -1.11887  0.0  25.0571  0.0  21.1378  0.0  -116.905  0.0  -25.4817  0.0 
 6.3  9.30204  0.0  -1.11887  0.0  25.0571  0.0  21.1378  0.0  -116.905  0.0  -25.4817  0.0 
 6.4  9.30204  0.0  -1.11887  0.0  25.0571  0.0  21.1378  0.0  -116.905  0.0  -25.4817  0.0 
 6.5  9.30204  0.0  -1.11887  0.0  25.0571  0.0  21.1378  0.0  -116.905  0.0  -25.4817  0.0 
 6.6  9.30204  0.0  -1.11887  0.0  25.0571  0.0  21.1378  0.0  -116.905  0.0  -25.4817  0.0 
 6.7  9.30204  0.0  -1.11887  0.0  25.0571  0.0  21.1378  0.0  -116.905  0.0  -25.4817  0.0 
 6.8  9.30204  0.0  -1.11887  0.0  25.0571  0.0  21.1378  0.0  -116.905  0.0  -25.4817  0.0 
 6.9  9.30204  0.0  -1.11887  0.0  25.0571  0.0  21.1378  0.0  -116.905  0.0  -25.4817  0.0 
 7.0  9.30204  0.0  -1.11887  0.0  25.0571  0.0  21.1378  0.0  -116.905  0.0  -25.4817  0.0 
 7.1  9.30204  0.0  -1.11887  0.0  25.0571  0.0  21.1378  0.0  -116.905  0.0  -25.4817  0.0 
 7.2  9.30204  0.0  -1.11887  0.0  25.0571  0.0  21.1378  0.0  -116.905  0.0  -25.4817  0.0 
 7.3  9.30204  0.0  -1.11887  0.0  25.0571  0.0  21.1378  0.0  -116.905  0.0  -25.4817  0.0 
 7.4  9.30204  0.0  -1.11887  0.0  25.0571  0.0  21.1378  0.0  -116.905  0.0  -25.4817  0.0 
 7.5  9.30204  0.0  -1.11887  0.0  25.0571  0.0  21.1378  0.0  -116.905  0.0  -25.4817  0.0 
 7.6  9.30204  0.0  -1.11887  0.0  25.0571  0.0  21.1378  0.0  -116.905  0.0  -25.4817  0.0 
 7.7  9.30204  0.0  -1.11887  0.0  25.0571  0.0  21.1378  0.0  -116.905  0.0  -25.4817  0.0 
 7.8  9.30204  0.0  -1.11887  0.0  25.0571  0.0  21.1378  0.0  -116.905  0.0  -25.4817  0.0 
 7.9  9.30204  0.0  -1.11887  0.0  25.0571  0.0  21.1378  0.0  -116.905  0.0  -25.4817  0.0 
 8.0  9.30204  0.0  -1.11887  0.0  25.0571  0.0  21.1378  0.0  -116.905  0.0  -25.4817  0.0 
 8.1  9.30204  0.0  -1.11887  0.0  25.0571  0.0  21.1378  0.0  -116.905  0.0  -25.4817  0.0 
 8.2  9.30204  0.0  -1.11887  0.0  25.0571  0.0  21.1378  0.0  -116.905  0.0  -25.4817  0.0 
 8.3  9.30204  0.0  -1.11887  0.0  25.0571  0.0  21.1378  0.0  -116.905  0.0  -25.4817  0.0 
 8.4  9.30204  0.0  -1.11887  0.0  25.0571  0.0  21.1378  0.0  -116.905  0.0  -25.4817  0.0 
 8.5  9.30204  0.0  -1.11887  0.0  25.0571  0.0  21.1378  0.0  -116.905  0.0  -25.4817  0.0 
 8.6  9.30204  0.0  -1.11887  0.0  25.0571  0.0  21.1378  0.0  -116.905  0.0  -25.4817  0.0 
 8.7  9.30204  0.0  -1.11887  0.0  25.0571  0.0  21.1378  0.0  -116.905  0.0  -25.4817  0.0 
 8.8  9.30204  0.0  -1.11887  0.0  25.0571  0.0  21.1378  0.0  -116.905  0.0  -25.4817  0.0 
 8.9  9.30204  0.0  -1.11887  0.0  25.0571  0.0  21.1378  0.0  -116.905  0.0  -25.4817  0.0 
 9.0  9.30204  0.0  -1.11887  0.0  25.0571  0.0  21.1378  0.0  -116.905  0.0  -25.4817  0.0 
 9.1  9.30204  0.0  -1.11887  0.0  25.0571  0.0  21.1378  0.0  -116.905  0.0  -25.4817  0.0 
 9.2  9.30204  0.0  -1.11887  0.0  25.0571  0.0  21.1378  0.0  -116.905  0.0  -25.4817  0.0 
 9.3  9.30204  0.0  -1.11887  0.0  25.0571  0.0  21.1378  0.0  -116.905  0.0  -25.4817  0.0 
 9.4  9.30204  0.0  -1.11887  0.0  25.0571  0.0  21.1378  0.0  -116.905  0.0  -25.4817  0.0 
 9.5  9.30204  0.0  -1.11887  0.0  25.0571  0.0  21.1378  0.0  -116.905  0.0  -25.4817  0.0 
 9.6  9.30204  0.0  -1.11887  0.0  25.0571  0.0  21.1378  0.0  -116.905  0.0  -25.4817  0.0 
 9.7  9.30204  0.0  -1.11887  0.0  25.0571  0.0  21.1378  0.0  -116.905  0.0  -25.4817  0.0 
 9.8  9.30204  0.0  -1.11887  0.0  25.0571  0.0  21.1378  0.0  -116.905  0.0  -25.4817  0.0 
 9.9  9.30204  0.0  -1.11887  0.0  25.0571  0.0  21.1378  0.0  -116.905  0.0  -25.4817  0.0 
Zone t="DoF 4",I=	100,F=POINT
 0.0  1190.61  0.0  -226.144  0.0  12.1818  0.0  1831.72  0.0  -13509.7  0.0  1532.78  0.0 
 0.1  1190.61  0.0  -226.144  0.0  12.1818  0.0  1831.72  0.0  -13509.7  0.0  1532.78  0.0 
 0.2  1190.61  0.0  -226.144  0.0  12.1818  0.0  1831.72  0.0  -13509.7  0.0  1532.78  0.0 
 0.3  1190.61  0.0  -226.144  0.0  12.1818  0.0  1831.72  0.0  -13509.7  0.0  1532.78  0.0 
 0.4  1190.61  0.0  -226.144  0.0  12.1818  0.0  1831.72  0.0  -13509.7  0.0  1532.78  0.0 
 0.5  1190.61  0.0  -226.144  0.0  12.1818  0.0  1831.72  0.0  -13509.7  0.0  1532.78  0.0 
 0.6  1190.61  0.0  -226.144  0.0  12.1818  0.0  1831.72  0.0  -13509.7  0.0  1532.78  0.0 
 0.7  1190.61  0.0  -226.144  0.0  12.1818  0.0  1831.72  0.0  -13509.7  0.0  1532.78  0.0 
 0.8  1190.61  0.0  -226.144  0.0  12.1818  0.0  1831.72  0.0  -13509.7  0.0  1532.78  0.0 
 0.9  1190.61  0.0  -226.144  0.0  12.1818  0.0  1831.72  0.0  -13509.7  0.0  1532.78  0.0 
 1.0  1190.61  0.0  -226.144  0.0  12.1818  0.0  1831.72  0.0  -13509.7  0.0  1532.78  0.0 
 1.1  1190.61  0.0  -226.144  0.0  12.1818  0.0  1831.72  0.0  -13509.7  0.0  1532.78  0.0 
 1.2  1190.61  0.0  -226.144  0.0  12.1818  0.0  1831.72  0.0  -13509.7  0.0  1532.78  0.0 
 1.3  1190.61  0.0  -226.144  0.0  12.1818  0.0  1831.72  0.0  -13509.7  0.0  1532.78  0.0 
 1.4  1190.61  0.0  -226.144  0.0  12.1818  0.0  1831.72  0.0  -13509.7  0.0  1532.78  0.0 
 1.5  1190.61  0.0  -226.144  0.0  12.1818  0.0  1831.72  0.0  -13509.7  0.0  1532.78  0.0 
 1.6  1190.61  0.0  -226.144  0.0  12.1818  0.0  1831.72  0.0  -13509.7  0.0  1532.78  0.0 
 1.7  1190.61  0.0  -226.144  0.0  12.1818  0.0  1831.72  0.0  -13509.7  0.0  1532.78  0.0 