VARIABLES="w (rad/s)"
"abs(F	1	1)" "angle(F	1	1)"
"abs(F	1	2)" "angle(F	1	2)"
"abs(F	1	3)" "angle(F	1	3)"
"abs(F	1	4)" "angle(F	1	4)"
"abs(F	1	5)" "angle(F	1	5)"
"abs(F	1	6)" "angle(F	1	6)"
Zone t="Diffraction force - beta = 0.0 deg",I=1,F=POINT
0.1	4977.23	-3.1355	8.62868	1.56836	5036.2	1.57341	8440.05	1.61081	30059.3	-0.590148	8295.18	0.0228125	
