VARIABLES="w (rad/s)"
"A	1	1" "B	1	1"
"A	1	2" "B	1	2"
"A	1	3" "B	1	3"
"A	1	4" "B	1	4"
"A	1	5" "B	1	5"
"A	1	6" "B	1	6"
Zone t="Motion of body	1	in DoF	1",I=	1,F=POINT
0.1	-26.1836	0.242424	39.5743	9.67924	-90.0605	-278.065	1250.3	-280.997	660.009	1610.47	3269.34	-184.787	
Zone t="Motion of body	1	in DoF	2",I=	1,F=POINT
0.1	151.399	17.7925	-355.934	-7.97816	5084.02	-199.107	4849.46	-378.588	-31583.1	797.092	-486.268	231.039	
Zone t="Motion of body	1	in DoF	3",I=	1,F=POINT
0.1	-553.521	-30.5421	711.526	-30.9671	-6666.36	1134.81	-5690.05	1010.23	47305.3	-5790.99	-9466.14	-326.496	
Zone t="Motion of body	1	in DoF	4",I=	1,F=POINT
0.1	4416.02	17.9181	-5452.56	206.613	53050.3	-11823.4	36956.8	-16808.6	-408580.0	69850.6	14813.8	738.75	
Zone t="Motion of body	1	in DoF	5",I=	1,F=POINT
0.1	2540.86	269.27	-3946.79	-66.9901	50000.0	974.562	29666.3	3529.81	-316677.0	-13032.3	8841.82	5294.89	
Zone t="Motion of body	1	in DoF	6",I=	1,F=POINT
0.1	-1360.82	204.438	-433.428	-249.862	20097.5	6412.65	26637.2	8129.33	-61918.7	-42313.2	-9642.47	4328.76	
