VARIABLES="w (rad/s)"
"abs(F	1	1)" "angle(F	1	1)"
"abs(F	1	2)" "angle(F	1	2)"
"abs(F	1	3)" "angle(F	1	3)"
"abs(F	1	4)" "angle(F	1	4)"
"abs(F	1	5)" "angle(F	1	5)"
"abs(F	1	6)" "angle(F	1	6)"
Zone t="Diffraction force - beta = 0.0 deg",I=41,F=POINT
0.1	13537.8	-3.14159	0.000537742	-1.44901	751219.0	-1.57084	0.000779964	1.6381	41869.3	3.14159	3.52868e-05	-3.13484	
0.1475	29399.8	-3.14159	0.000633894	-1.39767	738994.0	-1.57098	0.00498197	-1.45337	91205.2	-3.14159	4.19725e-05	-0.0227234	
0.195	51060.0	-3.14157	0.00276032	-1.49125	722320.0	-1.57135	0.00855114	-2.69111	158816.0	-3.14157	0.000129703	-3.13424	
0.2425	78353.1	-3.14152	0.00437052	-1.22113	701501.0	-1.5721	0.00193399	-0.226799	244651.0	-3.14152	0.000130831	0.131588	
0.29	110981.0	-3.14139	0.00775399	1.47076	676819.0	-1.57337	0.0210706	1.64582	348042.0	-3.14139	0.000160501	-3.08214	
0.3375	148622.0	-3.1411	0.00423138	-2.2216	648772.0	-1.57534	0.00396004	1.63442	468278.0	-3.1411	0.000328203	-0.0290616	
0.385	191014.0	-3.14055	0.00652933	1.21638	617907.0	-1.57818	0.0277629	2.62163	605490.0	-3.14055	2.15792e-05	-2.35619	
0.4325	237742.0	-3.13956	0.0240341	1.42938	584743.0	-1.58203	0.0410643	2.89995	758576.0	-3.13956	0.00145031	-3.11002	
0.48	288394.0	-3.13793	0.00563588	0.357503	549765.0	-1.58704	0.0201032	-0.143185	927062.0	-3.13793	0.000241263	0.965252	
0.5275	342614.0	-3.1354	0.0086587	-2.93595	513446.0	-1.59334	0.073684	-2.92876	1.10986e+06	-3.1354	0.000702277	-3.109	
0.575	400175.0	-3.13165	0.0119576	3.03259	476810.0	-1.60102	0.0567281	-0.974438	1.30879e+06	-3.13165	0.000427859	0.383818	
0.6225	460136.0	-3.12632	0.0295584	2.71558	439731.0	-1.61021	0.123401	1.40032	1.51866e+06	-3.12632	0.00103515	-2.80353	
0.67	522413.0	-3.11902	0.0220876	0.432902	403195.0	-1.62102	0.105618	2.44068	1.7424e+06	-3.11901	0.00106254	-2.92448	
0.7175	586158.0	-3.10933	0.0214288	-0.240316	367156.0	-1.63356	0.0392324	2.93794	1.97782e+06	-3.10933	0.00195461	3.10255	
0.765	650389.0	-3.09685	0.0347509	-2.10726	332523.0	-1.64791	0.0719681	-1.35194	2.22076e+06	-3.09685	0.00214928	-3.03133	
0.8125	713888.0	-3.08125	0.0390813	-2.87985	298833.0	-1.66447	0.100132	2.73222	2.46698e+06	-3.08124	0.000266483	0.41241	
0.86	776044.0	-3.06234	0.00797184	0.0411645	267452.0	-1.68272	0.0432374	-2.14705	2.71884e+06	-3.06233	0.000674544	0.761403	
0.9075	834960.0	-3.03997	0.00665216	0.0947614	237585.0	-1.70361	0.0235301	2.02458	2.96742e+06	-3.03995	0.00132341	-0.396565	
0.955	888083.0	-3.01422	0.0717898	-3.08777	209701.0	-1.72689	0.101516	3.04827	3.20261e+06	-3.0142	0.00151363	1.32643	
1.0025	933834.0	-2.9855	0.0271951	-1.72855	184269.0	-1.75219	0.140858	0.482833	3.41703e+06	-2.98548	0.0028602	2.44685	
1.05	970864.0	-2.9549	0.120101	-2.97966	160730.0	-1.78099	0.310724	3.0195	3.60872e+06	-2.95485	0.00111246	2.28946	
1.0975	996644.0	-2.92327	0.0306941	2.67883	139323.0	-1.81263	0.349605	0.0914344	3.76562e+06	-2.92318	0.00303523	-2.8771	
1.145	1.01053e+06	-2.8918	0.0179081	-0.733258	120320.0	-1.84569	0.259098	-0.0347532	3.88161e+06	-2.8917	0.00445141	-2.11886	
1.1925	1.01234e+06	-2.86232	0.0257912	-2.42632	103234.0	-1.88265	0.171084	-0.958302	3.95568e+06	-2.86218	0.00146429	-2.55648	
1.24	1.00198e+06	-2.83625	0.0342115	1.48327	87931.4	-1.92487	0.0347791	0.987174	3.9841e+06	-2.83605	0.00415319	0.0367482	
1.2875	981153.0	-2.81475	0.0268453	2.81795	74625.7	-1.96676	0.31315	2.75293	3.97068e+06	-2.81448	0.00425892	2.01522	
1.335	951582.0	-2.79919	0.0378795	2.23384	63036.3	-2.01138	0.158304	-0.427258	3.92052e+06	-2.79886	0.00296068	1.32082	
1.3825	915330.0	-2.79024	0.0076788	-1.17073	52911.0	-2.06081	0.0928388	2.18351	3.83967e+06	-2.78986	0.00050354	1.5708	
1.43	873810.0	-2.78854	0.0523539	0.5162	44145.7	-2.11652	0.295646	-0.241536	3.73261e+06	-2.78805	0.00108265	-1.4578	
1.4775	829898.0	-2.79405	0.0520565	-0.127227	36644.4	-2.1718	0.106429	-2.3458	3.60952e+06	-2.79347	0.00225087	1.35213	
1.525	784342.0	-2.80697	0.00443606	-2.70949	30278.8	-2.22983	0.233867	-2.78951	3.47333e+06	-2.80635	0.00379205	1.63522	
1.5725	738945.0	-2.82705	0.0227117	3.1174	24869.9	-2.29363	0.447317	-3.04456	3.33164e+06	-2.82632	0.00134416	-2.25972	
1.62	694232.0	-2.85391	0.0450489	3.12669	20337.6	-2.36285	0.175058	-3.09804	3.18568e+06	-2.85323	0.00133756	1.09695	
1.6675	650880.0	-2.88744	0.00734992	2.90266	16555.0	-2.43888	0.0309777	2.43828	3.03947e+06	-2.88671	0.000328684	1.19029	
1.715	609557.0	-2.92697	0.0687545	-0.136467	13414.9	-2.51915	0.0489115	2.19714	2.89576e+06	-2.92628	0.000521485	-2.78282	
1.7625	570368.0	-2.97231	0.0289758	3.08574	10842.5	-2.60352	0.181648	-3.05597	2.75563e+06	-2.97174	0.00168815	0.86217	
1.81	533512.0	-3.02306	0.0210177	-0.088688	8790.53	-2.70658	0.0414834	0.160137	2.62057e+06	-3.02261	0.0004767	-0.694738	
1.8575	498889.0	-3.07881	0.0211557	0.122924	7148.26	-2.81188	0.124675	-3.03236	2.49044e+06	-3.07863	0.00221163	0.488334	
1.905	466526.0	-3.13945	0.0255882	-3.01724	5916.7	-2.93603	0.227783	0.0479653	2.36603e+06	-3.13949	0.00012207	0.0	
1.9525	436375.0	3.07866	0.0412164	-0.112783	4925.09	-3.05014	0.0860439	-2.93843	2.24755e+06	3.07834	0.000610352	-0.643501	
2.0	408302.0	3.00938	0.0373936	-0.0931721	4223.31	3.11615	0.0654829	2.12056	2.13494e+06	3.00873	6.10352e-05	-1.5708	
