VARIABLES="w (rad/s)"
"abs(F	1	1)" "angle(F	1	1)"
"abs(F	1	2)" "angle(F	1	2)"
"abs(F	1	3)" "angle(F	1	3)"
"abs(F	1	4)" "angle(F	1	4)"
"abs(F	1	5)" "angle(F	1	5)"
"abs(F	1	6)" "angle(F	1	6)"
Zone t="FKforce - beta =	0.0",I=	41,F=POINT
0.1	7725.11	-3.14158	0.0	0.0	753977.0	-1.5708	0.0	0.0	24068.8	3.14158	0.0	0.0	
0.1475	16706.6	-3.14159	0.0	0.0	744986.0	-1.5708	0.0	0.0	52156.5	3.14159	0.0	0.0	
0.195	28958.5	3.14159	0.0	0.0	732711.0	-1.5708	0.0	0.0	90657.2	3.14159	0.0	0.0	
0.2425	44313.9	3.14159	0.0	0.0	717307.0	-1.5708	0.0	0.0	139222.0	3.14159	0.0	0.0	
0.29	62564.9	3.14159	0.0	0.0	698968.0	-1.5708	0.0	0.0	197413.0	3.14159	0.0	0.0	
0.3375	83466.5	3.14159	0.0	0.0	677924.0	-1.5708	0.0	0.0	264711.0	3.14159	0.0	0.0	
0.385	106741.0	3.14159	0.0	0.0	654431.0	-1.5708	0.0	0.0	340521.0	3.14159	0.0	0.0	
0.4325	132083.0	-3.14159	0.0	0.0	628773.0	-1.5708	0.0	0.0	424179.0	3.14159	0.0	0.0	
0.48	159165.0	3.14159	0.0	0.0	601251.0	-1.5708	0.0	0.0	514964.0	3.14159	0.0	0.0	
0.5275	187643.0	3.14159	0.0	0.0	572182.0	-1.5708	0.0	0.0	612099.0	3.14159	0.0	0.0	
0.575	217159.0	3.14159	0.0	0.0	541889.0	-1.5708	0.0	0.0	714768.0	3.14159	0.0	0.0	
0.6225	247355.0	3.14159	0.0	0.0	510700.0	-1.5708	0.0	0.0	822115.0	-3.14159	0.0	0.0	
0.67	277868.0	3.14159	0.0	0.0	478936.0	-1.5708	0.0	0.0	933260.0	3.14159	0.0	0.0	
0.7175	308343.0	3.14159	0.0	0.0	446914.0	-1.5708	0.0	0.0	1.0473e+06	3.14159	0.0	0.0	
0.765	338438.0	3.14159	0.0	0.0	414933.0	-1.5708	0.0	0.0	1.16332e+06	3.14159	0.0	0.0	
0.8125	367821.0	-3.14159	0.0	0.0	383279.0	-1.5708	0.0	0.0	1.2804e+06	-3.14159	0.0	0.0	
0.86	396185.0	3.14159	0.0	0.0	352213.0	-1.5708	0.0	0.0	1.39761e+06	3.14159	0.0	0.0	
0.9075	423242.0	3.14159	0.0	0.0	321972.0	-1.5708	0.0	0.0	1.51403e+06	-3.14159	0.0	0.0	
0.955	448730.0	3.14159	0.0	0.0	292765.0	-1.5708	0.0	0.0	1.62875e+06	3.14159	0.0	0.0	
1.0025	472417.0	-3.14159	0.0	0.0	264775.0	-1.5708	0.0	0.0	1.74086e+06	3.14159	0.0	0.0	
1.05	494096.0	3.14159	0.0	0.0	238150.0	-1.5708	0.0	0.0	1.84947e+06	3.14159	0.0	0.0	
1.0975	513595.0	3.14159	0.0	0.0	213011.0	-1.5708	0.0	0.0	1.95372e+06	-3.14159	0.0	0.0	
1.145	530767.0	3.14159	0.0	0.0	189448.0	-1.5708	0.0	0.0	2.05275e+06	-3.14159	0.0	0.0	
1.1925	545498.0	3.14159	0.0	0.0	167521.0	-1.5708	0.0	0.0	2.14574e+06	-3.14159	0.0	0.0	
1.24	557701.0	-3.14159	0.0	0.0	147262.0	-1.5708	0.0	0.0	2.23189e+06	3.14159	0.0	0.0	
1.2875	567316.0	-3.14159	0.0	0.0	128678.0	-1.5708	0.0	0.0	2.31044e+06	3.14159	0.0	0.0	
1.335	574311.0	3.14159	0.0	0.0	111752.0	-1.5708	0.0	0.0	2.38066e+06	3.14159	0.0	0.0	
1.3825	578675.0	3.14159	0.0	0.0	96446.0	-1.5708	0.0	0.0	2.44186e+06	3.14159	0.0	0.0	
1.43	580419.0	3.14159	0.0	0.0	82704.6	-1.5708	0.0	0.0	2.49339e+06	-3.14159	0.0	0.0	
1.4775	579575.0	3.14159	0.0	0.0	70457.0	-1.5708	0.0	0.0	2.53467e+06	3.14159	0.0	0.0	
1.525	576191.0	3.14159	0.0	0.0	59620.2	-1.5708	0.0	0.0	2.56515e+06	-3.14159	0.0	0.0	
1.5725	570330.0	3.14159	0.0	0.0	50102.5	-1.5708	0.0	0.0	2.58436e+06	-3.14159	0.0	0.0	
1.62	562069.0	3.14159	0.0	0.0	41805.7	-1.5708	0.0	0.0	2.5919e+06	3.14159	0.0	0.0	
1.6675	551496.0	3.14159	0.0	0.0	34627.9	-1.5708	0.0	0.0	2.58744e+06	3.14159	0.0	0.0	
1.715	538710.0	3.14159	0.0	0.0	28466.1	-1.5708	0.0	0.0	2.57073e+06	-3.14159	0.0	0.0	
1.7625	523820.0	3.14159	0.0	0.0	23218.1	-1.5708	0.0	0.0	2.54162e+06	3.14159	0.0	0.0	
1.81	506941.0	-3.14159	0.0	0.0	18784.2	-1.5708	0.0	0.0	2.50005e+06	3.14159	0.0	0.0	
1.8575	488197.0	3.14159	0.0	0.0	15068.9	-1.5708	0.0	0.0	2.44607e+06	3.14159	0.0	0.0	
1.905	467719.0	3.14159	0.0	0.0	11982.1	-1.5708	0.0	0.0	2.37984e+06	3.14159	0.0	0.0	
1.9525	445647.0	-3.14159	0.0	0.0	9439.67	-1.5708	0.0	0.0	2.30163e+06	3.14159	0.0	0.0	
2.0	422124.0	3.14159	0.0	0.0	7364.45	-1.5708	0.0	0.0	2.21183e+06	-3.14159	0.0	0.0	
