VARIABLES="w (rad/s)"
"A	1	1" "B	1	1"
"A	1	2" "B	1	2"
"A	1	3" "B	1	3"
"A	1	4" "B	1	4"
"A	1	5" "B	1	5"
"A	1	6" "B	1	6"
Zone t="Motion of body	1	in DoF	1",I=	41,F=POINT
0.1	584146.0	0.0490976	-0.00339508	-1.01318e-09	-0.0271606	-3.3041e-05	0.013504	-7.85803e-10	1.78709e+06	0.15161	-0.000152588	4.65661e-10	
0.1475	589725.0	0.749129	0.00395694	3.25963e-09	0.0081725	9.41386e-05	-0.0150002	5.21541e-08	1.81033e+06	2.32333	0.00662076	9.31323e-10	
0.195	592252.0	5.21526	0.00344301	-1.06636e-07	-0.00344301	-0.000492243	0.000939002	-7.07805e-08	1.81967e+06	16.2238	0.00211276	3.77186e-08	
0.2425	595899.0	23.6225	0.00487652	5.02914e-08	0.00830582	0.000486337	0.00100677	2.08616e-07	1.83511e+06	73.7601	0.00604059	-1.22935e-07	
0.29	600143.0	81.0559	0.000368316	8.34465e-07	-0.0127332	-0.000946939	0.0290443	-1.3262e-06	1.85192e+06	254.195	-0.000315699	-2.16067e-07	
0.3375	605224.0	229.16	-0.00406901	4.12762e-06	-0.0347222	-0.00107074	0.0120262	1.03116e-05	1.87023e+06	722.044	0.00307436	-1.07288e-06	
0.385	611924.0	561.827	-0.00586572	2.38419e-07	0.0204507	0.00212216	-0.00705471	-2.02656e-06	1.89682e+06	1780.93	-0.000871931	2.98023e-06	
0.4325	619876.0	1233.66	-0.000987852	2.13385e-05	-0.00493926	0.00145054	0.0068444	-4.14848e-05	1.9273e+06	3936.36	-0.00169346	-6.31809e-06	
0.48	629053.0	2481.92	-0.000445048	-5.72205e-06	0.0207265	5.62668e-05	-0.0184377	-2.00272e-05	1.96301e+06	7978.32	0.00425975	-1.54972e-05	
0.5275	639888.0	4648.97	0.00778126	5.07832e-05	-0.0301994	-0.00237274	-0.0089094	-7.34329e-05	2.00308e+06	15060.1	0.00520679	-5.05447e-05	
0.575	652913.0	8210.6	0.00177798	-3.19481e-05	0.0264309	0.00552177	0.0189474	-4.3869e-05	2.05624e+06	26853.7	-0.00615659	-2.86102e-05	
0.6225	666599.0	13780.0	0.00686339	0.000119209	0.0287282	0.00445175	0.00392194	-0.000181198	2.10784e+06	45480.4	0.00960875	0.00018692	
0.67	682072.0	22135.1	-0.000728778	0.000181198	0.0347991	0.00753021	0.0166708	0.000225067	2.16988e+06	73831.0	0.00847204	1.52588e-05	
0.7175	698257.0	34209.1	0.00497639	7.62939e-06	0.00527412	-0.00484467	0.038365	-0.000473022	2.23773e+06	115438.0	-0.0100378	-7.62939e-05	
0.765	714250.0	51059.7	-0.0104518	-0.000427246	0.0020744	0.00538635	-7.97845e-05	0.000434875	2.30494e+06	174351.0	0.00239354	-0.000427246	
0.8125	728866.0	73728.1	0.00987831	-7.62939e-05	-0.000600962	0.0184021	-0.0201322	0.00238037	2.36715e+06	254804.0	-0.00157752	0.000366211	
0.86	741839.0	103192.0	0.00762939	0.00110626	0.0090843	0.0144653	0.00816168	0.00192261	2.43059e+06	361597.0	-0.00468409	-0.000610352	
0.9075	751001.0	140245.0	0.000907961	0.00037384	0.0134513	0.00393677	0.00564954	0.00195312	2.4822e+06	498516.0	0.0010761	0.000244141	
0.955	753543.0	184992.0	0.0134853	0.000991821	0.00511289	-0.00192261	-0.0100341	-0.00128174	2.5104e+06	667267.0	-0.0046016	0.00100708	
1.0025	748662.0	236897.0	-0.00578388	0.00248718	0.00754949	0.00842285	0.0300762	-0.00262451	2.50976e+06	866990.0	0.00888891	0.00119019	
1.05	735567.0	293996.0	0.00749861	0.00466919	-0.0136021	0.00909424	-0.00517346	0.00683594	2.48185e+06	1.09311e+06	-0.00848679	-0.00134277	
1.0975	712478.0	353725.0	-0.00678477	-0.000640869	0.0125685	-0.00958252	0.0271391	-0.0135193	2.41621e+06	1.33714e+06	-0.00789703	-0.00219727	
1.145	680526.0	413162.0	0.00533058	0.000427246	-0.00501075	-0.00708008	0.00778265	-0.0126038	2.31293e+06	1.58786e+06	0.00447769	0.00354004	
1.1925	641224.0	468251.0	-0.00261031	0.00424194	-0.00481116	0.00543213	0.00163784	-0.00784302	2.17839e+06	1.83088e+06	0.00767738	0.00158691	
1.24	596098.0	515613.0	0.00251032	0.00579834	-0.0047253	-0.00469971	0.00600507	-0.00549316	2.01572e+06	2.05194e+06	0.00285487	-0.00219727	
1.2875	548440.0	553475.0	0.00621018	0.00396729	-0.00758495	-0.00598145	-0.0235133	-0.00845337	1.83666e+06	2.24238e+06	0.000568871	0.00500488	
1.335	500755.0	580183.0	-0.0104011	-0.00537109	0.00448048	0.000183105	0.00754367	0.0160828	1.65092e+06	2.39357e+06	-0.00128014	0.00463867	
1.3825	455335.0	595868.0	0.00134653	0.000549316	0.00406165	-0.00817871	0.00648981	-0.0189514	1.46765e+06	2.5036e+06	0.00167764	0.00170898	
1.43	413133.0	600715.0	0.00245421	-0.00408936	0.00682911	0.00109863	-0.0176276	0.0139465	1.29104e+06	2.5714e+06	-0.00375601	0.0032959	
1.4775	376387.0	597332.0	-0.00442014	-0.0119629	0.00223073	0.00482178	-0.0102448	-0.0126038	1.13143e+06	2.60498e+06	0.000908815	-0.00195312	
1.525	344427.0	586397.0	-0.000200115	0.00427246	0.0152888	0.00408936	0.0015609	-0.0281067	986879.0	2.60504e+06	0.000560323	-0.00476074	
1.5725	317955.0	569966.0	-0.00516227	-0.0032959	-0.00582211	-0.00143433	-0.0030275	0.00643921	862004.0	2.57986e+06	0.00256173	0.00146484	
1.62	296333.0	549749.0	0.000414436	0.00518799	0.00369225	0.00588989	0.0131866	0.00338745	754039.0	2.53361e+06	0.00259965	0.0	
1.6675	278908.0	526349.0	0.000851015	0.003479	0.0026354	0.00210571	0.00208636	-0.00990295	662105.0	2.47092e+06	0.000366028	-0.00305176	
1.715	265618.0	501794.0	-0.00142356	0.00213623	0.00462657	0.000915527	0.00807871	-0.00337219	586744.0	2.39874e+06	-0.000160151	0.000488281	
1.7625	255544.0	476394.0	-0.00068394	-0.00335693	0.0046404	0.00114441	0.000242409	0.00488281	524621.0	2.31804e+06	0.00183538	0.00354004	
1.81	248497.0	450767.0	-0.000906254	-0.00109863	-0.000202326	0.00292969	-0.00215815	-0.0230408	475742.0	2.23214e+06	0.00274827	0.00964355	
1.8575	243715.0	426548.0	0.00195715	-0.000915527	-0.00834613	-0.00268555	0.00328588	-0.0342026	436647.0	2.14533e+06	0.00204546	0.000366211	
1.905	240661.0	401111.0	4.3053e-05	0.00146484	0.00237092	-0.000404358	-0.00506223	0.009552	405298.0	2.05327e+06	-2.00247e-05	-0.00109863	
1.9525	239310.0	378181.0	-0.000459131	-0.00115967	0.007815	0.000518799	0.0003126	0.000270844	382198.0	1.96641e+06	-0.000551446	0.00256348	
2.0	239113.0	355818.0	0.00243568	0.00476074	-0.0098877	0.00100708	0.000457764	0.0104179	365383.0	1.87854e+06	0.00335121	-0.00378418	
Zone t="Motion of body	1	in DoF	2",I=	41,F=POINT
0.1	0.0044632	1.81899e-11	584146.0	0.0491289	0.00118256	-4.00178e-10	-1.78709e+06	-0.151834	-0.00709534	8.00355e-10	-0.00442505	2.23562e-07	
0.1475	-0.00625869	8.73115e-10	589724.0	0.74922	0.00430608	-3.14321e-09	-1.81033e+06	-2.32417	0.00170692	3.72529e-09	-0.0108493	1.49025e-06	
0.195	-0.00320826	-1.62981e-08	592251.0	5.21489	0.000136938	-3.3062e-08	-1.81967e+06	-16.2219	-0.0144763	1.87196e-07	0.00207363	3.34345e-06	
0.2425	-0.00251691	-1.99303e-07	595898.0	23.6226	-0.000125846	1.67638e-07	-1.83511e+06	-73.7581	0.0088092	-3.94881e-07	0.00408998	-9.87388e-06	
0.29	0.00631398	-5.21541e-08	600143.0	81.0582	-0.00082871	8.79169e-07	-1.85192e+06	-254.205	-0.0214149	-6.25849e-07	0.00288075	1.40071e-06	
0.3375	0.00538014	1.11759e-06	605225.0	229.158	-0.00409162	3.54648e-06	-1.87023e+06	-722.04	-0.016276	-4.52995e-06	0.00975432	-1.70171e-05	
0.385	0.0167252	2.68221e-06	611924.0	561.827	-0.00108991	-2.47359e-06	-1.89682e+06	-1780.92	0.000554865	2.5034e-06	-0.00531085	-5.26011e-05	
0.4325	0.0052215	2.38419e-07	619876.0	1233.66	0.000264603	4.35114e-06	-1.92729e+06	-3936.35	0.00225795	2.69413e-05	7.05609e-05	9.92417e-06	
0.48	0.00178019	-5.96046e-06	629054.0	2481.92	-0.00386238	-2.90871e-05	-1.96301e+06	-7978.35	0.00540415	-6.05583e-05	0.00335375	-5.90682e-05	
0.5275	0.000694239	1.90735e-06	639888.0	4648.97	0.000882262	3.83854e-05	-2.00308e+06	-15060.1	-0.00416543	-6.19888e-05	0.00470058	0.000124454	
0.575	-0.00886337	-5.48363e-05	652913.0	8210.61	0.00114109	-2.6226e-05	-2.05624e+06	-26853.8	0.0109333	6.67572e-05	0.00035825	-8.74996e-05	
0.6225	-0.00490242	-3.24249e-05	666599.0	13780.0	0.000637315	7.24792e-05	-2.10784e+06	-45480.4	-0.0230414	-0.000423431	0.00867729	0.000128269	
0.67	-0.00145756	-3.43323e-05	682072.0	22135.1	0.00209524	0.000121117	-2.16988e+06	-73831.0	-0.00737888	0.00104141	0.00603519	-0.000198364	
0.7175	0.00255199	1.52588e-05	698257.0	34209.1	-0.00250946	-0.000128746	-2.23773e+06	-115438.0	0.0116541	-5.34058e-05	-0.00461485	-0.000734329	
0.765	-0.00686147	-0.000164032	714250.0	51059.7	-0.00668195	-0.000173569	-2.30494e+06	-174351.0	0.0118081	0.000488281	-0.000857684	0.000749588	
0.8125	0.00676082	-0.000740051	728866.0	73728.1	0.00283579	-5.72205e-05	-2.36714e+06	-254804.0	0.0214093	0.00131226	-0.00927734	0.00107574	
0.86	0.00894236	0.000457764	741839.0	103192.0	0.0023243	0.000209808	-2.4306e+06	-361597.0	0.0192332	0.001297	-0.00841008	0.00285339	
0.9075	-0.0041699	0.000396729	751001.0	140245.0	-0.000773448	0.000148773	-2.4822e+06	-498517.0	0.000470795	0.00158691	-0.000588493	0.000751495	
0.955	-0.00837236	-0.0010376	753543.0	184992.0	0.00375478	0.000709534	-2.5104e+06	-667268.0	0.00536854	0.00292969	-0.00524072	-0.00200653	
1.0025	0.00961951	0.0010376	748662.0	236897.0	0.00353121	0.000572205	-2.50976e+06	-866990.0	0.0105936	-0.000762939	0.0121157	0.00590515	
1.05	-0.000232515	0.00100708	735567.0	293996.0	0.00101725	0.00128174	-2.48185e+06	-1.09311e+06	0.00494094	0.0122681	0.0041562	0.00396729	
1.0975	0.00483832	-0.000335693	712479.0	353725.0	-0.00162668	-0.00159454	-2.41621e+06	-1.33714e+06	-0.00867561	-0.000213623	0.0101772	-0.00424194	
1.145	-0.00495744	-0.00463867	680526.0	413162.0	0.000386467	8.39233e-05	-2.31293e+06	-1.58786e+06	-0.0281988	0.0132751	0.00295847	0.00802612	
1.1925	-0.00168902	-0.0020752	641225.0	468251.0	-0.000972468	0.000335693	-2.17839e+06	-1.83088e+06	0.00563008	-0.0156555	0.00227762	-0.0012207	
1.24	-0.00575896	-0.00476074	596099.0	515612.0	0.000922911	-0.000526428	-2.01572e+06	-2.05194e+06	0.00413464	-0.0206909	-0.00817084	0.015686	
1.2875	-0.000379248	-0.00268555	548440.0	553475.0	-0.00274954	0.00169373	-1.83666e+06	-2.24238e+06	-0.0124678	-0.0127563	0.000189624	-0.00994873	
1.335	0.000137158	-0.00299072	500755.0	580183.0	0.00128014	0.000663757	-1.65092e+06	-2.39357e+06	0.00178305	-0.0267334	0.00856092	3.05176e-05	
1.3825	-0.00233987	-0.000244141	455335.0	595869.0	0.000673263	0.000862122	-1.46765e+06	-2.5036e+06	-0.0200875	0.0501709	-0.00313454	0.000732422	
1.43	-0.00435356	0.0	413133.0	600715.0	0.000629558	-0.00115204	-1.29104e+06	-2.5714e+06	-0.0092193	0.00811768	0.00326517	0.000244141	
1.4775	0.000165239	0.00598145	376387.0	597332.0	0.000113602	-0.000106812	-1.13143e+06	-2.60498e+06	-0.00408967	-0.0107422	-0.000588664	0.0156555	
1.525	-0.000180104	-0.00354004	344427.0	586397.0	-0.000290167	-0.000289917	-986880.0	-2.60504e+06	0.00120069	0.0119629	-0.000470271	0.00393677	
1.5725	-0.000349327	-0.00268555	317955.0	569966.0	-2.91106e-05	-3.43323e-05	-862004.0	-2.57986e+06	-0.000698654	0.000274658	-0.00231914	-0.00393677	
1.62	0.00124331	0.00683594	296333.0	549749.0	-0.00065933	0.000778198	-754039.0	-2.53361e+06	0.00862781	0.0505066	-0.00106906	0.00820923	
1.6675	-0.00102488	0.000366211	278908.0	526349.0	0.00119874	-0.000740051	-662105.0	-2.47092e+06	-0.00563683	-0.0268402	0.00543551	-0.0012207	
1.715	0.00184173	-0.00195312	265618.0	501794.0	0.00121003	0.00062561	-586744.0	-2.39874e+06	0.00608572	0.0116882	0.00234887	-0.00521851	
1.7625	0.00362748	0.00170898	255544.0	476394.0	-0.00122936	0.000440598	-524621.0	-2.31804e+06	-0.00661431	-0.00241089	-0.00458197	0.0101318	
1.81	0.00185044	0.00317383	248497.0	450767.0	0.00156803	0.000822067	-475742.0	-2.23214e+06	0.00330467	-0.01474	0.00513825	0.00604248	
1.8575	0.00194894	0.00109863	243715.0	426548.0	0.000829684	0.000171661	-436647.0	-2.14533e+06	-0.00368018	0.00801849	1.02684e-05	-0.00317383	
1.905	0.00154891	0.00317383	240661.0	401111.0	0.000897105	-0.000118256	-405298.0	-2.05327e+06	-0.00108934	0.000335693	-0.00812751	-0.00152588	
1.9525	-0.000497718	-0.000671387	239310.0	378181.0	-0.00121914	-0.000163078	-382198.0	-1.96641e+06	-0.00040638	-0.0553513	0.00869272	0.00012207	
2.0	-0.00234604	0.00341797	239112.0	355818.0	0.00087738	-6.00815e-05	-365383.0	-1.87854e+06	-0.00521851	0.00528717	-0.0018568	-0.00186157	
Zone t="Motion of body	1	in DoF	3",I=	41,F=POINT
0.1	0.00362396	0.000128031	0.00151634	-4.8399e-05	277791.0	301.429	0.0923157	-0.000437498	-0.0708008	0.000146866	0.000267029	-5.96046e-07	
0.1475	-0.0205347	0.000133514	0.0148773	1.7643e-05	279706.0	936.074	-0.452074	0.000167847	-0.0529661	0.000911713	0.000103449	1.19209e-06	
0.195	-0.00176063	4.3869e-05	-0.00872979	-0.000341177	280681.0	2066.4	-0.155405	0.00617409	0.130208	-0.000595093	-0.0	-1.90735e-06	
0.2425	-0.0279377	1.52588e-05	0.0192387	0.000313282	280056.0	3748.41	-0.0796603	-0.00390244	-0.0281894	-0.00370789	0.000204499	-1.04904e-05	
0.29	0.000578782	4.19617e-05	0.0142393	-0.00234175	279291.0	5967.66	-0.208361	-0.00160599	-0.0488281	0.00183105	-1.31541e-05	-5.72205e-06	
0.3375	0.0339988	-0.00144196	-0.00365081	0.000374794	277167.0	8643.11	-0.411422	0.0184097	-0.0564236	0.00360107	2.26056e-05	5.72205e-06	
0.385	0.00459745	0.000274658	-0.0111716	-0.00153446	273514.0	11638.7	0.261579	0.0124054	0.0951197	0.00817871	-7.92664e-05	-1.90735e-05	
0.4325	0.0336575	0.00668335	-0.0143371	-0.00223541	268890.0	14775.4	-0.391613	0.0384216	0.0237085	0.00524902	1.76402e-05	-1.52588e-05	
0.48	0.000635783	0.00369263	0.0218789	-0.000761032	263972.0	17851.7	-0.0485738	-0.0291138	0.0345866	-0.0216064	-3.17891e-05	7.62939e-05	
0.5275	0.0325424	-0.00111389	-0.016546	-0.00101852	259328.0	20673.6	0.170204	-0.00128174	0.0971934	-0.0100098	-2.89266e-05	-6.10352e-05	
0.575	0.00915527	-0.00799561	-0.0130164	-0.00115967	252812.0	23078.7	-0.263035	-0.00221252	0.0806726	-0.0012207	0.000106148	-4.57764e-05	
0.6225	0.00747619	0.00485229	-0.0201796	0.0044632	247738.0	24906.6	-0.154132	0.0878754	-0.0298067	0.0148926	-0.000171585	3.8147e-05	
0.67	-0.00596687	0.000732422	0.00136077	-0.00189972	242095.0	26093.4	-0.00746997	0.025177	0.0612173	-0.000976562	0.000125259	3.8147e-05	
0.7175	-0.00510399	-0.00531006	-0.00455371	-0.00868225	237839.0	26581.0	-0.242609	0.118408	0.0775806	0.027832	-0.000154183	0.00012207	
0.765	-0.00923506	0.0123596	-0.00282238	0.00037384	233163.0	26360.9	-0.109464	0.0440521	-0.0804228	0.0438232	-6.48249e-05	9.15527e-05	
0.8125	-0.0087515	-0.00442505	0.00537814	0.02174	230885.0	25657.1	0.00871394	-0.013382	0.00480769	0.012207	-1.4085e-05	9.15527e-05	
0.86	-0.0092706	0.00854492	0.00384353	0.00739288	227166.0	24115.4	0.132148	0.0098877	-0.00681323	0.0134277	0.000110892	0.00012207	
0.9075	-0.0184661	-0.000305176	-0.00549479	0.0173798	225536.0	22443.2	0.134378	-0.0630798	-0.0753271	0.0368652	-2.99501e-05	-3.05176e-05	
0.955	-0.00210108	-0.00646973	-0.00501503	0.00693512	224615.0	20383.2	0.376181	-0.0756683	-0.058287	-0.125	7.9889e-06	4.57764e-05	
1.0025	-0.00225267	0.00527954	0.00156964	0.000572205	223316.0	17836.5	-0.0987521	-0.105637	-0.0681889	-0.0375977	-3.61493e-05	-1.52588e-05	
1.05	0.00166393	-0.0114746	-0.00396547	-0.0122147	223558.0	15784.8	-0.0161598	-0.135452	0.0269717	0.0124512	-2.17983e-05	-1.52588e-05	
1.0975	-0.00889806	-0.0150452	-0.00185782	-0.0129929	224197.0	13662.3	0.11612	0.0295105	0.00444903	0.0324097	-3.47581e-05	-3.05176e-05	
1.145	-0.0118072	-0.00357056	0.00175909	-0.00257874	224247.0	10954.1	-0.0513868	0.069458	-0.0631141	0.0326538	1.33265e-05	1.52588e-05	
1.1925	-0.00492632	0.0127869	0.00133394	0.000255585	225065.0	9041.69	-0.157949	-0.0912323	-0.0303001	0.00231934	-0.0	-3.05176e-05	
1.24	-0.0119363	0.00314331	0.00152896	0.000465393	226598.0	8268.86	0.0747188	-0.042244	-0.022839	0.0380249	-1.23055e-05	1.52588e-05	
1.2875	0.000142218	0.0100403	-0.0022903	0.000667572	227363.0	5964.55	0.0762288	-0.00669479	-0.0197209	0.0163574	2.3703e-05	9.91821e-05	
1.335	-0.000868665	-0.0115967	-0.00012287	-0.000541687	228239.0	4256.01	0.10168	-0.023983	-0.0943645	-0.0101318	5.14341e-05	9.91821e-05	
1.3825	0.00114786	-0.00415039	0.00443415	0.00106812	229285.0	3404.07	-0.0192487	0.0407486	-0.0	0.0168152	3.86298e-05	7.62939e-06	
1.43	0.00303042	-0.00909424	-0.00387072	-0.00165176	230368.0	3400.57	-0.227409	0.0281944	0.0245848	-0.0173798	2.1341e-05	-4.57764e-05	
1.4775	0.00243728	-0.0137329	-0.000808122	-0.000923157	231296.0	2214.81	-0.168213	0.0279007	-0.0264382	-0.0762329	-2.58186e-05	5.34058e-05	
1.525	-0.0147885	0.000823975	0.00255397	-0.00149727	232123.0	1350.61	-0.119429	-0.00525475	-0.0665984	-2.28882e-05	-0.0	-3.05176e-05	
1.5725	-0.00316335	0.00350952	-0.000106739	-0.000232697	232851.0	1017.8	0.0532529	0.0044899	-0.00745231	0.0192795	-9.70352e-06	3.8147e-06	
1.62	-0.00273151	-0.00109863	0.00569143	0.00114632	233453.0	1017.99	-0.121618	0.00344658	-0.0265239	-0.0114822	5.6514e-05	3.8147e-06	
1.6675	0.00301973	-0.000839233	0.000608521	0.00219536	233996.0	966.574	0.0191799	0.0111189	0.0245971	-0.000221252	-4.11781e-05	-2.28882e-05	
1.715	-0.000480452	-0.00212097	-0.00239781	3.62396e-05	234607.0	606.564	-0.222645	0.0114579	-0.0353043	-0.00361252	-1.33459e-05	3.8147e-06	
1.7625	0.00361882	-0.0026474	-0.003608	0.000958443	235024.0	502.969	-0.170102	0.00221014	0.0288121	-0.0211258	-8.65747e-06	3.8147e-06	
1.81	-0.0036756	-0.00112152	0.00349645	0.000915527	235356.0	580.651	0.145675	-0.00568104	-0.00107907	-0.00778961	-4.21514e-05	1.90735e-06	
1.8575	0.00575028	0.000648499	-0.00649371	-0.000281334	235669.0	628.337	-0.10804	0.00205946	0.00736036	0.00494766	-2.46441e-05	-3.8147e-06	
1.905	0.00189834	-0.00126266	-0.00710074	0.00046587	236090.0	448.898	-0.127261	0.00358677	-0.00102526	-0.00297165	-3.20395e-05	1.90735e-06	
1.9525	-0.00168023	-0.000892639	-0.000728749	-0.000265598	236420.0	264.158	0.0112536	-0.00195789	-0.0170054	-0.00981903	-2.73525e-05	-9.53674e-07	
2.0	0.00353241	-0.000484467	0.00466442	-0.000315189	236557.0	373.259	-0.0546875	-0.0062952	-0.00292969	-0.00493622	3.8147e-06	9.53674e-07	
Zone t="Motion of body	1	in DoF	4",I=	41,F=POINT
0.1	-0.0216675	2.09548e-09	-1.7845e+06	-0.151889	0.0163269	2.42289e-09	8.14313e+06	0.473608	-0.0845337	3.0559e-09	0.0205231	-2.24825e-06	
0.1475	0.0157243	2.67755e-08	-1.80763e+06	-2.31834	0.000310348	-4.72646e-08	8.23098e+06	7.18641	0.0426212	1.81608e-08	0.00822423	1.39349e-07	
0.195	0.001878	2.54251e-07	-1.81687e+06	-16.186	-0.0186235	-4.33996e-07	8.26492e+06	50.3635	-0.0225361	-2.86847e-07	0.000626002	1.7406e-05	
0.2425	-0.013843	7.52509e-07	-1.83207e+06	-73.5679	-0.0168004	-2.64496e-07	8.33174e+06	229.708	-0.0231556	5.66244e-07	-0.0303917	4.27999e-05	
0.29	0.0242036	-2.23517e-07	-1.84901e+06	-253.538	-0.0169425	4.23193e-06	8.40078e+06	795.115	-0.0513537	8.34465e-07	0.0137329	-4.32134e-07	
0.3375	0.00705295	-3.27826e-06	-1.86747e+06	-720.419	0.0102177	1.84774e-06	8.46722e+06	2269.9	0.0166377	-1.46627e-05	0.0118453	-1.42753e-05	
0.385	-0.0380479	1.15633e-05	-1.89373e+06	-1776.63	-0.00293286	2.15769e-05	8.57535e+06	5631.7	0.0421697	-5.14984e-05	-0.0120485	-4.071e-05	
0.4325	-0.00338692	2.93255e-05	-1.92423e+06	-3927.14	0.002893	1.5974e-05	8.69128e+06	12530.6	0.0330225	-0.000173569	-0.0292122	-0.000123262	
0.48	-0.00330607	5.53131e-05	-1.95987e+06	-7959.79	-0.00883738	2.90871e-05	8.83494e+06	25587.4	0.0106812	1.71661e-05	0.0302633	5.62668e-05	
0.5275	-0.000694239	0.000257492	-2.00016e+06	-15032.3	0.00289266	-6.05583e-05	8.98417e+06	48696.3	-0.168469	-6.86646e-05	0.00231413	-3.09944e-05	
0.575	0.00976562	5.14984e-05	-2.05292e+06	-26790.0	0.029403	0.000254631	9.20349e+06	87619.7	0.0101902	0.00148773	-0.0154976	-0.000253677	
0.6225	0.0174526	-0.00031662	-2.10476e+06	-45400.8	-0.0034317	-0.000282288	9.39953e+06	149843.0	0.024316	4.57764e-05	-0.0160799	0.00166225	
0.67	-0.0178551	-0.000587463	-2.1666e+06	-73704.1	-0.00692339	0.000873566	9.64748e+06	245836.0	0.0972919	-0.000762939	-0.0151221	0.000301361	
0.7175	0.0122496	0.0012207	-2.23446e+06	-115210.0	-0.0173535	0.00063324	9.93485e+06	388765.0	0.0432137	-0.000106812	0.0171834	-3.05176e-05	
0.765	-0.00989328	0.00250244	-2.30139e+06	-174030.0	-0.00518599	0.000900269	1.02163e+07	594253.0	-0.0197866	-0.00311279	-0.0201855	4.57764e-05	
0.8125	0.0249399	0.00134277	-2.36408e+06	-254506.0	0.0101412	-0.000747681	1.04788e+07	879547.0	-0.00450721	-0.00732422	0.0148738	-0.000198364	
0.86	0.0053938	0.00131226	-2.42717e+06	-361096.0	0.0542219	-0.000717163	1.07731e+07	1.26525e+06	0.0255496	0.00976562	0.00645837	-0.00050354	
0.9075	-0.0139893	-0.00592041	-2.47859e+06	-497738.0	-0.00269025	0.000961304	1.10397e+07	1.76924e+06	-0.0903926	0.0114136	0.0449273	0.00923157	
0.955	-0.0184064	-0.00708008	-2.50719e+06	-666328.0	-0.00421814	0.00125122	1.12226e+07	2.40323e+06	-0.148785	-0.000610352	0.0218576	0.000946045	
1.0025	-0.00876714	0.0111084	-2.5065e+06	-866214.0	-0.00852361	-3.05176e-05	1.12898e+07	3.16988e+06	0.00828008	0.0291748	0.0110807	0.00222778	
1.05	0.0125558	0.00610352	-2.47883e+06	-1.09233e+06	-0.00406901	0.0100708	1.12771e+07	4.06121e+06	-0.0218564	0.0910645	0.0159273	0.0149536	
1.0975	0.00489394	-0.00561523	-2.41367e+06	-1.33635e+06	-0.000667355	-0.00247192	1.1124e+07	5.0505e+06	0.0324779	-0.0288086	-0.0205768	-0.00811768	
1.145	0.0115141	0.000976562	-2.31026e+06	-1.58718e+06	0.00650331	0.00408936	1.08129e+07	6.09833e+06	-0.0149256	-0.0787354	0.0180174	0.0164185	
1.1925	-0.00777974	-0.0129395	-2.17579e+06	-1.83026e+06	0.0125909	-0.00512695	1.0377e+07	7.15507e+06	0.116696	-0.0020752	-0.0350088	0.0205078	
1.24	-0.0224452	-0.0270996	-2.01348e+06	-2.05147e+06	0.0071864	0.00204468	9.81685e+06	8.1627e+06	0.00866305	-0.0251465	-0.023725	0.0196533	
1.2875	0.0189624	-0.0229492	-1.83456e+06	-2.24218e+06	0.0240822	0.00708008	9.16099e+06	9.07991e+06	-0.00417172	-0.00708008	-0.0147907	-0.0457764	
1.335	0.0215795	-0.0163574	-1.64831e+06	-2.39314e+06	0.0128014	0.0115051	8.45178e+06	9.8671e+06	0.00731507	-0.0456543	0.0112469	0.00317383	
1.3825	0.0245465	0.0102539	-1.46503e+06	-2.50341e+06	-0.00370847	-0.00848389	7.73145e+06	1.05127e+07	-0.107016	0.00708008	0.0216327	0.00292969	
1.43	-0.00324383	-0.00488281	-1.28875e+06	-2.57159e+06	-0.0331639	0.00241089	7.01529e+06	1.10019e+07	-0.0402917	-0.0102539	-0.0394381	-0.0186768	
1.4775	-0.00280906	0.00830078	-1.12903e+06	-2.60539e+06	0.0128886	0.00149536	6.33629e+06	1.13487e+07	-0.106414	-0.00268555	-0.00280906	0.0128174	
1.525	0.00432249	-0.0195312	-984174.0	-2.60508e+06	-0.0123271	-0.00213623	5.69855e+06	1.15542e+07	-0.0291368	0.0910645	0.00448258	0.0288086	
1.5725	-0.00512346	-0.0429688	-859359.0	-2.57985e+06	0.022124	0.0020752	5.13175e+06	1.1659e+07	-0.023599	0.128662	0.0202221	-0.0153809	
1.62	-0.00150704	-0.00585938	-751132.0	-2.53358e+06	0.0110768	0.00389099	4.61683e+06	1.16583e+07	-0.014769	0.0109863	-0.0146183	0.0125732	
1.6675	0.00161052	0.0449219	-659369.0	-2.471e+06	0.00417272	-0.001297	4.16219e+06	1.15785e+07	0.00556362	0.0436401	-0.00453875	0.036377	
1.715	0.00455539	0.0112305	-583965.0	-2.3991e+06	-0.00953786	-0.00164795	3.76677e+06	1.14381e+07	-0.0022777	-0.111877	0.00316742	-0.015625	
1.7625	0.00297817	0.00146484	-521649.0	-2.31785e+06	-0.0166223	-0.003479	3.42084e+06	1.12379e+07	-0.0451574	-0.0626831	-0.00571393	0.0444336	
1.81	0.000202326	-0.0166016	-472855.0	-2.23186e+06	0.0153768	-0.00288391	3.13222e+06	1.10143e+07	0.0685212	0.170532	-0.0148373	0.00219727	
1.8575	0.000328588	-0.00195312	-433430.0	-2.14447e+06	-0.000722893	-0.00185394	2.88049e+06	1.0754e+07	0.0115663	-0.11142	0.000558599	-0.000244141	
1.905	-0.00147381	0.00195312	-402497.0	-2.05316e+06	-0.00993223	-0.000221252	2.66724e+06	1.04769e+07	-0.00487	0.0279236	0.00238694	-0.0310059	
1.9525	0.0009378	0.019043	-379109.0	-1.96626e+06	-0.0335107	0.000488281	2.48835e+06	1.01818e+07	0.0185059	0.0258789	0.00153174	-0.015625	
2.0	0.000488281	0.0136719	-362573.0	-1.87827e+06	0.00531006	-4.95911e-05	2.34058e+06	9.8769e+06	-0.00634766	-0.0434265	-0.00062561	-0.0162354	
Zone t="Motion of body	1	in DoF	5",I=	41,F=POINT
0.1	1.7845e+06	0.15196	-0.0267029	1.44792e-09	-0.0512695	-0.00025476	-0.11261	-2.53203e-09	8.14313e+06	0.47319	0.00305176	-6.1118e-10	
0.1475	1.80763e+06	2.31793	-0.0227589	-1.00117e-08	0.182071	0.00109692	0.0591731	-1.11759e-07	8.23098e+06	7.1835	0.000827595	4.42378e-09	
0.195	1.81687e+06	16.1856	-0.001878	5.12227e-08	0.0356821	-0.000349618	-0.0272311	-1.56462e-07	8.26492e+06	50.3629	0.0206581	2.79397e-08	
0.2425	1.83207e+06	73.5661	0.00855751	-3.241e-07	-0.146484	-0.00400838	-0.0901055	-3.26335e-06	8.33174e+06	229.703	-0.00453044	6.10948e-07	
0.29	1.849e+06	253.545	-0.0147326	-9.08971e-07	0.000841864	0.00233638	0.0155745	-5.96046e-08	8.40078e+06	795.125	0.00547212	8.9407e-08	
0.3375	1.86747e+06	720.425	-0.00741464	9.29832e-06	-0.041956	-0.00255561	0.0448495	-1.2517e-05	8.46722e+06	2269.89	0.0130208	-7.15256e-07	
0.385	1.89373e+06	1776.64	-0.00126826	1.68085e-05	0.0589742	0.000280857	-0.028853	4.29153e-06	8.57535e+06	5631.69	-0.0345602	-1.07288e-05	
0.4325	1.92423e+06	3927.13	-0.00931404	-3.14713e-05	0.0423365	-0.00543785	-0.107253	-0.000164032	8.69127e+06	12530.7	0.0158056	-9.53674e-06	
0.48	1.95988e+06	7959.81	-0.000635783	-4.00543e-05	-0.11851	-0.0224648	-0.0859578	-0.000148773	8.83494e+06	25587.5	0.000508626	-7.34329e-05	
0.5275	2.00016e+06	15032.4	-0.0189759	-7.15256e-05	0.04258	-0.00228882	-0.00694239	6.86646e-05	8.98418e+06	48696.4	0.00833087	0.000152588	
0.575	2.05292e+06	26790.0	0.0140115	1.71661e-05	0.055197	0.00991058	-0.0585938	-1.14441e-05	9.20349e+06	87619.6	0.00891644	-0.00037384	
0.6225	2.10476e+06	45400.8	0.00509852	-0.000705719	-0.0862826	-0.0372467	0.0560837	0.00202179	9.39953e+06	149842.0	0.0129424	0.000419617	
0.67	2.1666e+06	73704.2	0.00455486	-0.000518799	0.0233209	0.0352478	-0.0626749	0.000259399	9.64748e+06	245836.0	-0.0109317	0.000198364	
0.7175	2.23446e+06	115210.0	0.0146314	0.00182343	-0.0598868	-0.0206604	0.0170133	-0.0012207	9.93485e+06	388765.0	0.0292629	-0.00112915	
0.765	2.30139e+06	174030.0	0.0119677	-0.000770569	0.0861673	0.0830078	-0.067019	-0.00183105	1.02163e+07	594254.0	0.00446793	0.00222778	
0.8125	2.36408e+06	254506.0	0.00270433	0.00221252	0.093149	0.0766602	0.00901442	-0.00485229	1.04788e+07	879547.0	0.0222356	-0.00189209	
0.86	2.42717e+06	361096.0	0.0184525	0.00088501	-0.0238463	0.00476074	-0.0227108	-0.0229492	1.07731e+07	1.26525e+06	0.0272529	-0.00128174	
0.9075	2.47859e+06	497738.0	0.0449273	0.0143127	-0.106534	-0.0804443	0.0021522	6.10352e-05	1.10397e+07	1.76924e+06	-0.00430441	0.000488281	
0.955	2.50719e+06	666328.0	0.00562418	-0.00860596	-0.0097145	-0.00866699	-0.0756708	-0.00109863	1.12226e+07	2.40323e+06	-0.00664676	-0.0045166	
1.0025	2.5065e+06	866214.0	0.0119331	-0.000549316	-0.015586	0.0527344	0.0423745	-0.0228271	1.12898e+07	3.16989e+06	0.00779302	0.00793457	
1.05	2.47883e+06	1.09233e+06	-0.0246466	-0.00469971	0.0595238	0.026123	-0.0613839	-0.00402832	1.12771e+07	4.06121e+06	0.0302269	0.00683594	
1.0975	2.41367e+06	1.33635e+06	0.00355923	0.0216064	-0.0729641	-0.010498	-0.0195757	0.00195312	1.1124e+07	5.05049e+06	0.00578374	-0.00341797	
1.145	2.31026e+06	1.58718e+06	0.0345422	-0.0020752	-0.00938182	0.015625	-0.0818777	-0.065918	1.08129e+07	6.09833e+06	-0.0366744	-0.0078125	
1.1925	2.17579e+06	1.83026e+06	-0.0350088	-0.0146484	-0.0442217	-0.0500488	-0.0139216	-0.0410156	1.0377e+07	7.15507e+06	0.0122838	0.00244141	
1.24	2.01348e+06	2.05147e+06	-0.00767862	0.00854492	-0.0291394	-0.00805664	0.0216576	-0.124023	9.81686e+06	8.1627e+06	0.00078755	-0.0151367	
1.2875	1.83456e+06	2.24218e+06	0.0039821	0.0170898	0.00758495	0.026123	-0.0712985	-0.0769043	9.16099e+06	9.07991e+06	0.0128944	0.012207	
1.335	1.64831e+06	2.39314e+06	-0.0071322	-0.000244141	-0.0347466	0.0344238	0.150691	-0.0336914	8.45178e+06	9.8671e+06	-0.0117041	0.000488281	
1.3825	1.46503e+06	2.50341e+06	0.00953605	-0.0285645	0.0466207	0.0388184	0.00565099	-0.0944824	7.73145e+06	1.05127e+07	0.00317868	-0.0185547	
1.43	1.28875e+06	2.57159e+06	0.0049511	0.0112305	0.0676082	0.000488281	-0.0935588	0.0581055	7.01529e+06	1.10019e+07	-0.00546329	-0.00830078	
1.4775	1.12903e+06	2.6054e+06	0.0115667	-0.0432129	-0.0313954	0.03125	0.0399878	0.0390625	6.33629e+06	1.13487e+07	-0.00991434	0.00585938	
1.525	984175.0	2.60508e+06	-0.0147285	-0.00830078	-0.145364	0.000244141	0.0291368	-0.0264893	5.69855e+06	1.15542e+07	-0.00224129	0.00390625	
1.5725	859359.0	2.57985e+06	0.0137402	0.00585938	0.00652077	-0.00927734	0.0437823	0.185913	5.13175e+06	1.1659e+07	-0.00589974	0.0	
1.62	751132.0	2.53358e+06	-0.00308943	0.0168457	-0.0482253	0.0216064	0.00602816	-0.0964355	4.61683e+06	1.16583e+07	-0.00482253	-0.00195312	
1.6675	659369.0	2.471e+06	0.00117129	0.00537109	-0.0222545	-0.000488281	0.00819902	0.000793457	4.16218e+06	1.15785e+07	0.00351387	0.00585938	
1.715	583965.0	2.3991e+06	-0.00320301	-0.00195312	-0.0	-0.0192871	-0.0466928	-0.0280762	3.76677e+06	1.14381e+07	0.000284712	0.00878906	
1.7625	521649.0	2.31785e+06	-0.0146831	-0.0373535	0.0349069	0.0178223	-0.00470966	0.00701904	3.42083e+06	1.12379e+07	-0.00360151	0.00683594	
1.81	472855.0	2.23186e+06	-0.00364188	-0.0144043	-0.0609677	-0.0055542	0.0455909	0.0240479	3.13222e+06	1.10143e+07	0.00701398	0.00683594	
1.8575	433430.0	2.14447e+06	0.00427164	-0.0107422	0.141424	-0.00634766	-0.0199781	0.0458679	2.88049e+06	1.0754e+07	0.00197153	0.00585938	
1.905	402497.0	2.05316e+06	0.00224276	0.0163574	0.0184547	-0.00341797	0.00205053	0.0183411	2.66724e+06	1.04769e+07	0.00192237	0.0136719	
1.9525	379109.0	1.96626e+06	-0.0021882	0.0124512	-0.0715229	0.00286865	0.0127541	-0.0158386	2.48835e+06	1.01818e+07	-0.0018756	0.00390625	
2.0	362573.0	1.87827e+06	-0.00112915	0.00634766	0.00732422	-0.00628662	-0.000488281	0.00291443	2.34058e+06	9.8769e+06	-0.00244141	0.00976562	
Zone t="Motion of body	1	in DoF	6",I=	41,F=POINT
0.1	1.43051e-05	6.37268e-14	0.00319839	3.01121e-07	9.09495e-12	-2.4869e-14	-0.00360638	-1.45649e-06	-4.21573e-05	2.70006e-13	8142.54	1.03439e-05	
0.1475	1.29312e-05	-1.64135e-12	-0.00618636	1.79173e-06	-3.69964e-11	1.1191e-13	0.0195423	-1.65262e-06	-9.70584e-05	4.83169e-13	8120.17	-3.66416e-05	
0.195	9.78128e-05	-2.67164e-12	0.00491509	-7.62399e-07	1.86563e-11	1.13687e-13	0.00887221	1.18481e-05	-4.51524e-05	2.27374e-12	8135.38	0.000236614	
0.2425	-2.35961e-05	-4.54747e-13	-0.012091	-7.31767e-06	1.35018e-10	-5.68434e-13	0.0491883	3.32991e-05	-2.04089e-05	-1.13687e-12	8132.21	-0.000168724	
0.29	6.57706e-06	1.27898e-11	-0.0098064	2.42185e-06	5.0179e-11	-9.66338e-13	0.0273653	1.11095e-05	6.76749e-06	7.95808e-12	8117.07	0.000567558	
0.3375	-0.0	-8.41283e-12	0.00828566	-1.40931e-05	1.07792e-11	-2.38742e-12	-0.0488965	-2.28817e-05	-7.14053e-05	1.13687e-11	8143.46	3.82221e-05	
0.385	-0.0	-6.13909e-12	0.000566012	-3.90445e-05	9.4493e-12	-2.27374e-13	0.00609325	2.6631e-05	-7.10991e-05	-7.27596e-12	8152.2	0.000476411	