VARIABLES="w (rad/s)"
"abs(F	1	1)" "angle(F	1	1)"
"abs(F	1	2)" "angle(F	1	2)"
"abs(F	1	3)" "angle(F	1	3)"
"abs(F	1	4)" "angle(F	1	4)"
"abs(F	1	5)" "angle(F	1	5)"
"abs(F	1	6)" "angle(F	1	6)"
Zone t="Diffraction force - beta = 0.0 deg",I=	1,F=POINT
0.1	13.7605	-1.75895	8.50368	1.56832	61.6362	1.51013	168.837	2.13124	335.9	-0.75232	147.533	1.50542	
