VARIABLES="w (rad/s)"
"abs(F	1	1)" "angle(F	1	1)"
"abs(F	1	2)" "angle(F	1	2)"
"abs(F	1	3)" "angle(F	1	3)"
"abs(F	1	4)" "angle(F	1	4)"
"abs(F	1	5)" "angle(F	1	5)"
"abs(F	1	6)" "angle(F	1	6)"
Zone t="FKforce - beta =	0.0",I=	1,F=POINT
0.1	4974.59	-3.13821	0.125	1.5708	4974.69	1.57419	8293.99	1.60069	29727.9	-0.588324	8283.49	0.00507035	
