VARIABLES="Time (s)"
"AddedMass 1" "IRF 1"
"AddedMass 2" "IRF 2"
"AddedMass 3" "IRF 3"
"AddedMass 4" "IRF 4"
"AddedMass 5" "IRF 5"
"AddedMass 6" "IRF 6"
Zone t="DoF 1",I=	100,F=POINT
 0.0  -261.836  0.0  395.743  0.0  -900.605  0.0  12503.0  0.0  6600.09  0.0  32693.4  0.0 
 0.1  -261.836  0.0  395.743  0.0  -900.605  0.0  12503.0  0.0  6600.09  0.0  32693.4  0.0 
 0.2  -261.836  0.0  395.743  0.0  -900.605  0.0  12503.0  0.0  6600.09  0.0  32693.4  0.0 
 0.3  -261.836  0.0  395.743  0.0  -900.605  0.0  12503.0  0.0  6600.09  0.0  32693.4  0.0 
 0.4  -261.836  0.0  395.743  0.0  -900.605  0.0  12503.0  0.0  6600.09  0.0  32693.4  0.0 
 0.5  -261.836  0.0  395.743  0.0  -900.605  0.0  12503.0  0.0  6600.09  0.0  32693.4  0.0 
 0.6  -261.836  0.0  395.743  0.0  -900.605  0.0  12503.0  0.0  6600.09  0.0  32693.4  0.0 
 0.7  -261.836  0.0  395.743  0.0  -900.605  0.0  12503.0  0.0  6600.09  0.0  32693.4  0.0 
 0.8  -261.836  0.0  395.743  0.0  -900.605  0.0  12503.0  0.0  6600.09  0.0  32693.4  0.0 
 0.9  -261.836  0.0  395.743  0.0  -900.605  0.0  12503.0  0.0  6600.09  0.0  32693.4  0.0 
 1.0  -261.836  0.0  395.743  0.0  -900.605  0.0  12503.0  0.0  6600.09  0.0  32693.4  0.0 
 1.1  -261.836  0.0  395.743  0.0  -900.605  0.0  12503.0  0.0  6600.09  0.0  32693.4  0.0 
 1.2  -261.836  0.0  395.743  0.0  -900.605  0.0  12503.0  0.0  6600.09  0.0  32693.4  0.0 
 1.3  -261.836  0.0  395.743  0.0  -900.605  0.0  12503.0  0.0  6600.09  0.0  32693.4  0.0 
 1.4  -261.836  0.0  395.743  0.0  -900.605  0.0  12503.0  0.0  6600.09  0.0  32693.4  0.0 
 1.5  -261.836  0.0  395.743  0.0  -900.605  0.0  12503.0  0.0  6600.09  0.0  32693.4  0.0 
 1.6  -261.836  0.0  395.743  0.0  -900.605  0.0  12503.0  0.0  6600.09  0.0  32693.4  0.0 
 1.7  -261.836  0.0  395.743  0.0  -900.605  0.0  12503.0  0.0  6600.09  0.0  32693.4  0.0 
 1.8  -261.836  0.0  395.743  0.0  -900.605  0.0  12503.0  0.0  6600.09  0.0  32693.4  0.0 
 1.9  -261.836  0.0  395.743  0.0  -900.605  0.0  12503.0  0.0  6600.09  0.0  32693.4  0.0 
 2.0  -261.836  0.0  395.743  0.0  -900.605  0.0  12503.0  0.0  6600.09  0.0  32693.4  0.0 
 2.1  -261.836  0.0  395.743  0.0  -900.605  0.0  12503.0  0.0  6600.09  0.0  32693.4  0.0 
 2.2  -261.836  0.0  395.743  0.0  -900.605  0.0  12503.0  0.0  6600.09  0.0  32693.4  0.0 
 2.3  -261.836  0.0  395.743  0.0  -900.605  0.0  12503.0  0.0  6600.09  0.0  32693.4  0.0 
 2.4  -261.836  0.0  395.743  0.0  -900.605  0.0  12503.0  0.0  6600.09  0.0  32693.4  0.0 
 2.5  -261.836  0.0  395.743  0.0  -900.605  0.0  12503.0  0.0  6600.09  0.0  32693.4  0.0 
 2.6  -261.836  0.0  395.743  0.0  -900.605  0.0  12503.0  0.0  6600.09  0.0  32693.4  0.0 
 2.7  -261.836  0.0  395.743  0.0  -900.605  0.0  12503.0  0.0  6600.09  0.0  32693.4  0.0 
 2.8  -261.836  0.0  395.743  0.0  -900.605  0.0  12503.0  0.0  6600.09  0.0  32693.4  0.0 
 2.9  -261.836  0.0  395.743  0.0  -900.605  0.0  12503.0  0.0  6600.09  0.0  32693.4  0.0 
 3.0  -261.836  0.0  395.743  0.0  -900.605  0.0  12503.0  0.0  6600.09  0.0  32693.4  0.0 
 3.1  -261.836  0.0  395.743  0.0  -900.605  0.0  12503.0  0.0  6600.09  0.0  32693.4  0.0 
 3.2  -261.836  0.0  395.743  0.0  -900.605  0.0  12503.0  0.0  6600.09  0.0  32693.4  0.0 
 3.3  -261.836  0.0  395.743  0.0  -900.605  0.0  12503.0  0.0  6600.09  0.0  32693.4  0.0 
 3.4  -261.836  0.0  395.743  0.0  -900.605  0.0  12503.0  0.0  6600.09  0.0  32693.4  0.0 
 3.5  -261.836  0.0  395.743  0.0  -900.605  0.0  12503.0  0.0  6600.09  0.0  32693.4  0.0 
 3.6  -261.836  0.0  395.743  0.0  -900.605  0.0  12503.0  0.0  6600.09  0.0  32693.4  0.0 
 3.7  -261.836  0.0  395.743  0.0  -900.605  0.0  12503.0  0.0  6600.09  0.0  32693.4  0.0 
 3.8  -261.836  0.0  395.743  0.0  -900.605  0.0  12503.0  0.0  6600.09  0.0  32693.4  0.0 
 3.9  -261.836  0.0  395.743  0.0  -900.605  0.0  12503.0  0.0  6600.09  0.0  32693.4  0.0 
 4.0  -261.836  0.0  395.743  0.0  -900.605  0.0  12503.0  0.0  6600.09  0.0  32693.4  0.0 
 4.1  -261.836  0.0  395.743  0.0  -900.605  0.0  12503.0  0.0  6600.09  0.0  32693.4  0.0 
 4.2  -261.836  0.0  395.743  0.0  -900.605  0.0  12503.0  0.0  6600.09  0.0  32693.4  0.0 
 4.3  -261.836  0.0  395.743  0.0  -900.605  0.0  12503.0  0.0  6600.09  0.0  32693.4  0.0 
 4.4  -261.836  0.0  395.743  0.0  -900.605  0.0  12503.0  0.0  6600.09  0.0  32693.4  0.0 
 4.5  -261.836  0.0  395.743  0.0  -900.605  0.0  12503.0  0.0  6600.09  0.0  32693.4  0.0 
 4.6  -261.836  0.0  395.743  0.0  -900.605  0.0  12503.0  0.0  6600.09  0.0  32693.4  0.0 
 4.7  -261.836  0.0  395.743  0.0  -900.605  0.0  12503.0  0.0  6600.09  0.0  32693.4  0.0 
 4.8  -261.836  0.0  395.743  0.0  -900.605  0.0  12503.0  0.0  6600.09  0.0  32693.4  0.0 
 4.9  -261.836  0.0  395.743  0.0  -900.605  0.0  12503.0  0.0  6600.09  0.0  32693.4  0.0 
 5.0  -261.836  0.0  395.743  0.0  -900.605  0.0  12503.0  0.0  6600.09  0.0  32693.4  0.0 
 5.1  -261.836  0.0  395.743  0.0  -900.605  0.0  12503.0  0.0  6600.09  0.0  32693.4  0.0 
 5.2  -261.836  0.0  395.743  0.0  -900.605  0.0  12503.0  0.0  6600.09  0.0  32693.4  0.0 
 5.3  -261.836  0.0  395.743  0.0  -900.605  0.0  12503.0  0.0  6600.09  0.0  32693.4  0.0 
 5.4  -261.836  0.0  395.743  0.0  -900.605  0.0  12503.0  0.0  6600.09  0.0  32693.4  0.0 
 5.5  -261.836  0.0  395.743  0.0  -900.605  0.0  12503.0  0.0  6600.09  0.0  32693.4  0.0 
 5.6  -261.836  0.0  395.743  0.0  -900.605  0.0  12503.0  0.0  6600.09  0.0  32693.4  0.0 
 5.7  -261.836  0.0  395.743  0.0  -900.605  0.0  12503.0  0.0  6600.09  0.0  32693.4  0.0 
 5.8  -261.836  0.0  395.743  0.0  -900.605  0.0  12503.0  0.0  6600.09  0.0  32693.4  0.0 
 5.9  -261.836  0.0  395.743  0.0  -900.605  0.0  12503.0  0.0  6600.09  0.0  32693.4  0.0 
 6.0  -261.836  0.0  395.743  0.0  -900.605  0.0  12503.0  0.0  6600.09  0.0  32693.4  0.0 
 6.1  -261.836  0.0  395.743  0.0  -900.605  0.0  12503.0  0.0  6600.09  0.0  32693.4  0.0 
 6.2  -261.836  0.0  395.743  0.0  -900.605  0.0  12503.0  0.0  6600.09  0.0  32693.4  0.0 
 6.3  -261.836  0.0  395.743  0.0  -900.605  0.0  12503.0  0.0  6600.09  0.0  32693.4  0.0 
 6.4  -261.836  0.0  395.743  0.0  -900.605  0.0  12503.0  0.0  6600.09  0.0  32693.4  0.0 
 6.5  -261.836  0.0  395.743  0.0  -900.605  0.0  12503.0  0.0  6600.09  0.0  32693.4  0.0 
 6.6  -261.836  0.0  395.743  0.0  -900.605  0.0  12503.0  0.0  6600.09  0.0  32693.4  0.0 
 6.7  -261.836  0.0  395.743  0.0  -900.605  0.0  12503.0  0.0  6600.09  0.0  32693.4  0.0 
 6.8  -261.836  0.0  395.743  0.0  -900.605  0.0  12503.0  0.0  6600.09  0.0  32693.4  0.0 
 6.9  -261.836  0.0  395.743  0.0  -900.605  0.0  12503.0  0.0  6600.09  0.0  32693.4  0.0 
 7.0  -261.836  0.0  395.743  0.0  -900.605  0.0  12503.0  0.0  6600.09  0.0  32693.4  0.0 
 7.1  -261.836  0.0  395.743  0.0  -900.605  0.0  12503.0  0.0  6600.09  0.0  32693.4  0.0 
 7.2  -261.836  0.0  395.743  0.0  -900.605  0.0  12503.0  0.0  6600.09  0.0  32693.4  0.0 
 7.3  -261.836  0.0  395.743  0.0  -900.605  0.0  12503.0  0.0  6600.09  0.0  32693.4  0.0 
 7.4  -261.836  0.0  395.743  0.0  -900.605  0.0  12503.0  0.0  6600.09  0.0  32693.4  0.0 
 7.5  -261.836  0.0  395.743  0.0  -900.605  0.0  12503.0  0.0  6600.09  0.0  32693.4  0.0 
 7.6  -261.836  0.0  395.743  0.0  -900.605  0.0  12503.0  0.0  6600.09  0.0  32693.4  0.0 
 7.7  -261.836  0.0  395.743  0.0  -900.605  0.0  12503.0  0.0  6600.09  0.0  32693.4  0.0 
 7.8  -261.836  0.0  395.743  0.0  -900.605  0.0  12503.0  0.0  6600.09  0.0  32693.4  0.0 
 7.9  -261.836  0.0  395.743  0.0  -900.605  0.0  12503.0  0.0  6600.09  0.0  32693.4  0.0 
 8.0  -261.836  0.0  395.743  0.0  -900.605  0.0  12503.0  0.0  6600.09  0.0  32693.4  0.0 
 8.1  -261.836  0.0  395.743  0.0  -900.605  0.0  12503.0  0.0  6600.09  0.0  32693.4  0.0 
 8.2  -261.836  0.0  395.743  0.0  -900.605  0.0  12503.0  0.0  6600.09  0.0  32693.4  0.0 
 8.3  -261.836  0.0  395.743  0.0  -900.605  0.0  12503.0  0.0  6600.09  0.0  32693.4  0.0 
 8.4  -261.836  0.0  395.743  0.0  -900.605  0.0  12503.0  0.0  6600.09  0.0  32693.4  0.0 
 8.5  -261.836  0.0  395.743  0.0  -900.605  0.0  12503.0  0.0  6600.09  0.0  32693.4  0.0 
 8.6  -261.836  0.0  395.743  0.0  -900.605  0.0  12503.0  0.0  6600.09  0.0  32693.4  0.0 
 8.7  -261.836  0.0  395.743  0.0  -900.605  0.0  12503.0  0.0  6600.09  0.0  32693.4  0.0 
 8.8  -261.836  0.0  395.743  0.0  -900.605  0.0  12503.0  0.0  6600.09  0.0  32693.4  0.0 
 8.9  -261.836  0.0  395.743  0.0  -900.605  0.0  12503.0  0.0  6600.09  0.0  32693.4  0.0 
 9.0  -261.836  0.0  395.743  0.0  -900.605  0.0  12503.0  0.0  6600.09  0.0  32693.4  0.0 
 9.1  -261.836  0.0  395.743  0.0  -900.605  0.0  12503.0  0.0  6600.09  0.0  32693.4  0.0 
 9.2  -261.836  0.0  395.743  0.0  -900.605  0.0  12503.0  0.0  6600.09  0.0  32693.4  0.0 
 9.3  -261.836  0.0  395.743  0.0  -900.605  0.0  12503.0  0.0  6600.09  0.0  32693.4  0.0 
 9.4  -261.836  0.0  395.743  0.0  -900.605  0.0  12503.0  0.0  6600.09  0.0  32693.4  0.0 
 9.5  -261.836  0.0  395.743  0.0  -900.605  0.0  12503.0  0.0  6600.09  0.0  32693.4  0.0 
 9.6  -261.836  0.0  395.743  0.0  -900.605  0.0  12503.0  0.0  6600.09  0.0  32693.4  0.0 
 9.7  -261.836  0.0  395.743  0.0  -900.605  0.0  12503.0  0.0  6600.09  0.0  32693.4  0.0 
 9.8  -261.836  0.0  395.743  0.0  -900.605  0.0  12503.0  0.0  6600.09  0.0  32693.4  0.0 
 9.9  -261.836  0.0  395.743  0.0  -900.605  0.0  12503.0  0.0  6600.09  0.0  32693.4  0.0 
Zone t="DoF 2",I=	100,F=POINT
 0.0  1513.99  0.0  -3559.34  0.0  50840.2  0.0  48494.6  0.0  -315831.0  0.0  -4862.68  0.0 
 0.1  1513.99  0.0  -3559.34  0.0  50840.2  0.0  48494.6  0.0  -315831.0  0.0  -4862.68  0.0 
 0.2  1513.99  0.0  -3559.34  0.0  50840.2  0.0  48494.6  0.0  -315831.0  0.0  -4862.68  0.0 
 0.3  1513.99  0.0  -3559.34  0.0  50840.2  0.0  48494.6  0.0  -315831.0  0.0  -4862.68  0.0 
 0.4  1513.99  0.0  -3559.34  0.0  50840.2  0.0  48494.6  0.0  -315831.0  0.0  -4862.68  0.0 
 0.5  1513.99  0.0  -3559.34  0.0  50840.2  0.0  48494.6  0.0  -315831.0  0.0  -4862.68  0.0 
 0.6  1513.99  0.0  -3559.34  0.0  50840.2  0.0  48494.6  0.0  -315831.0  0.0  -4862.68  0.0 
 0.7  1513.99  0.0  -3559.34  0.0  50840.2  0.0  48494.6  0.0  -315831.0  0.0  -4862.68  0.0 
 0.8  1513.99  0.0  -3559.34  0.0  50840.2  0.0  48494.6  0.0  -315831.0  0.0  -4862.68  0.0 
 0.9  1513.99  0.0  -3559.34  0.0  50840.2  0.0  48494.6  0.0  -315831.0  0.0  -4862.68  0.0 
 1.0  1513.99  0.0  -3559.34  0.0  50840.2  0.0  48494.6  0.0  -315831.0  0.0  -4862.68  0.0 
 1.1  1513.99  0.0  -3559.34  0.0  50840.2  0.0  48494.6  0.0  -315831.0  0.0  -4862.68  0.0 
 1.2  1513.99  0.0  -3559.34  0.0  50840.2  0.0  48494.6  0.0  -315831.0  0.0  -4862.68  0.0 
 1.3  1513.99  0.0  -3559.34  0.0  50840.2  0.0  48494.6  0.0  -315831.0  0.0  -4862.68  0.0 
 1.4  1513.99  0.0  -3559.34  0.0  50840.2  0.0  48494.6  0.0  -315831.0  0.0  -4862.68  0.0 
 1.5  1513.99  0.0  -3559.34  0.0  50840.2  0.0  48494.6  0.0  -315831.0  0.0  -4862.68  0.0 
 1.6  1513.99  0.0  -3559.34  0.0  50840.2  0.0  48494.6  0.0  -315831.0  0.0  -4862.68  0.0 
 1.7  1513.99  0.0  -3559.34  0.0  50840.2  0.0  48494.6  0.0  -315831.0  0.0  -4862.68  0.0 
 1.8  1513.99  0.0  -3559.34  0.0  50840.2  0.0  48494.6  0.0  -315831.0  0.0  -4862.68  0.0 
 1.9  1513.99  0.0  -3559.34  0.0  50840.2  0.0  48494.6  0.0  -315831.0  0.0  -4862.68  0.0 
 2.0  1513.99  0.0  -3559.34  0.0  50840.2  0.0  48494.6  0.0  -315831.0  0.0  -4862.68  0.0 
 2.1  1513.99  0.0  -3559.34  0.0  50840.2  0.0  48494.6  0.0  -315831.0  0.0  -4862.68  0.0 
 2.2  1513.99  0.0  -3559.34  0.0  50840.2  0.0  48494.6  0.0  -315831.0  0.0  -4862.68  0.0 
 2.3  1513.99  0.0  -3559.34  0.0  50840.2  0.0  48494.6  0.0  -315831.0  0.0  -4862.68  0.0 
 2.4  1513.99  0.0  -3559.34  0.0  50840.2  0.0  48494.6  0.0  -315831.0  0.0  -4862.68  0.0 
 2.5  1513.99  0.0  -3559.34  0.0  50840.2  0.0  48494.6  0.0  -315831.0  0.0  -4862.68  0.0 
 2.6  1513.99  0.0  -3559.34  0.0  50840.2  0.0  48494.6  0.0  -315831.0  0.0  -4862.68  0.0 
 2.7  1513.99  0.0  -3559.34  0.0  50840.2  0.0  48494.6  0.0  -315831.0  0.0  -4862.68  0.0 
 2.8  1513.99  0.0  -3559.34  0.0  50840.2  0.0  48494.6  0.0  -315831.0  0.0  -4862.68  0.0 
 2.9  1513.99  0.0  -3559.34  0.0  50840.2  0.0  48494.6  0.0  -315831.0  0.0  -4862.68  0.0 
 3.0  1513.99  0.0  -3559.34  0.0  50840.2  0.0  48494.6  0.0  -315831.0  0.0  -4862.68  0.0 
 3.1  1513.99  0.0  -3559.34  0.0  50840.2  0.0  48494.6  0.0  -315831.0  0.0  -4862.68  0.0 
 3.2  1513.99  0.0  -3559.34  0.0  50840.2  0.0  48494.6  0.0  -315831.0  0.0  -4862.68  0.0 
 3.3  1513.99  0.0  -3559.34  0.0  50840.2  0.0  48494.6  0.0  -315831.0  0.0  -4862.68  0.0 
 3.4  1513.99  0.0  -3559.34  0.0  50840.2  0.0  48494.6  0.0  -315831.0  0.0  -4862.68  0.0 
 3.5  1513.99  0.0  -3559.34  0.0  50840.2  0.0  48494.6  0.0  -315831.0  0.0  -4862.68  0.0 
 3.6  1513.99  0.0  -3559.34  0.0  50840.2  0.0  48494.6  0.0  -315831.0  0.0  -4862.68  0.0 
 3.7  1513.99  0.0  -3559.34  0.0  50840.2  0.0  48494.6  0.0  -315831.0  0.0  -4862.68  0.0 
 3.8  1513.99  0.0  -3559.34  0.0  50840.2  0.0  48494.6  0.0  -315831.0  0.0  -4862.68  0.0 
 3.9  1513.99  0.0  -3559.34  0.0  50840.2  0.0  48494.6  0.0  -315831.0  0.0  -4862.68  0.0 
 4.0  1513.99  0.0  -3559.34  0.0  50840.2  0.0  48494.6  0.0  -315831.0  0.0  -4862.68  0.0 
 4.1  1513.99  0.0  -3559.34  0.0  50840.2  0.0  48494.6  0.0  -315831.0  0.0  -4862.68  0.0 
 4.2  1513.99  0.0  -3559.34  0.0  50840.2  0.0  48494.6  0.0  -315831.0  0.0  -4862.68  0.0 
 4.3  1513.99  0.0  -3559.34  0.0  50840.2  0.0  48494.6  0.0  -315831.0  0.0  -4862.68  0.0 
 4.4  1513.99  0.0  -3559.34  0.0  50840.2  0.0  48494.6  0.0  -315831.0  0.0  -4862.68  0.0 
 4.5  1513.99  0.0  -3559.34  0.0  50840.2  0.0  48494.6  0.0  -315831.0  0.0  -4862.68  0.0 
 4.6  1513.99  0.0  -3559.34  0.0  50840.2  0.0  48494.6  0.0  -315831.0  0.0  -4862.68  0.0 
 4.7  1513.99  0.0  -3559.34  0.0  50840.2  0.0  48494.6  0.0  -315831.0  0.0  -4862.68  0.0 
 4.8  1513.99  0.0  -3559.34  0.0  50840.2  0.0  48494.6  0.0  -315831.0  0.0  -4862.68  0.0 
 4.9  1513.99  0.0  -3559.34  0.0  50840.2  0.0  48494.6  0.0  -315831.0  0.0  -4862.68  0.0 
 5.0  1513.99  0.0  -3559.34  0.0  50840.2  0.0  48494.6  0.0  -315831.0  0.0  -4862.68  0.0 
 5.1  1513.99  0.0  -3559.34  0.0  50840.2  0.0  48494.6  0.0  -315831.0  0.0  -4862.68  0.0 
 5.2  1513.99  0.0  -3559.34  0.0  50840.2  0.0  48494.6  0.0  -315831.0  0.0  -4862.68  0.0 
 5.3  1513.99  0.0  -3559.34  0.0  50840.2  0.0  48494.6  0.0  -315831.0  0.0  -4862.68  0.0 
 5.4  1513.99  0.0  -3559.34  0.0  50840.2  0.0  48494.6  0.0  -315831.0  0.0  -4862.68  0.0 
 5.5  1513.99  0.0  -3559.34  0.0  50840.2  0.0  48494.6  0.0  -315831.0  0.0  -4862.68  0.0 
 5.6  1513.99  0.0  -3559.34  0.0  50840.2  0.0  48494.6  0.0  -315831.0  0.0  -4862.68  0.0 
 5.7  1513.99  0.0  -3559.34  0.0  50840.2  0.0  48494.6  0.0  -315831.0  0.0  -4862.68  0.0 
 5.8  1513.99  0.0  -3559.34  0.0  50840.2  0.0  48494.6  0.0  -315831.0  0.0  -4862.68  0.0 
 5.9  1513.99  0.0  -3559.34  0.0  50840.2  0.0  48494.6  0.0  -315831.0  0.0  -4862.68  0.0 
 6.0  1513.99  0.0  -3559.34  0.0  50840.2  0.0  48494.6  0.0  -315831.0  0.0  -4862.68  0.0 
 6.1  1513.99  0.0  -3559.34  0.0  50840.2  0.0  48494.6  0.0  -315831.0  0.0  -4862.68  0.0 
 6.2  1513.99  0.0  -3559.34  0.0  50840.2  0.0  48494.6  0.0  -315831.0  0.0  -4862.68  0.0 
 6.3  1513.99  0.0  -3559.34  0.0  50840.2  0.0  48494.6  0.0  -315831.0  0.0  -4862.68  0.0 
 6.4  1513.99  0.0  -3559.34  0.0  50840.2  0.0  48494.6  0.0  -315831.0  0.0  -4862.68  0.0 
 6.5  1513.99  0.0  -3559.34  0.0  50840.2  0.0  48494.6  0.0  -315831.0  0.0  -4862.68  0.0 
 6.6  1513.99  0.0  -3559.34  0.0  50840.2  0.0  48494.6  0.0  -315831.0  0.0  -4862.68  0.0 
 6.7  1513.99  0.0  -3559.34  0.0  50840.2  0.0  48494.6  0.0  -315831.0  0.0  -4862.68  0.0 
 6.8  1513.99  0.0  -3559.34  0.0  50840.2  0.0  48494.6  0.0  -315831.0  0.0  -4862.68  0.0 
 6.9  1513.99  0.0  -3559.34  0.0  50840.2  0.0  48494.6  0.0  -315831.0  0.0  -4862.68  0.0 
 7.0  1513.99  0.0  -3559.34  0.0  50840.2  0.0  48494.6  0.0  -315831.0  0.0  -4862.68  0.0 
 7.1  1513.99  0.0  -3559.34  0.0  50840.2  0.0  48494.6  0.0  -315831.0  0.0  -4862.68  0.0 
 7.2  1513.99  0.0  -3559.34  0.0  50840.2  0.0  48494.6  0.0  -315831.0  0.0  -4862.68  0.0 
 7.3  1513.99  0.0  -3559.34  0.0  50840.2  0.0  48494.6  0.0  -315831.0  0.0  -4862.68  0.0 
 7.4  1513.99  0.0  -3559.34  0.0  50840.2  0.0  48494.6  0.0  -315831.0  0.0  -4862.68  0.0 
 7.5  1513.99  0.0  -3559.34  0.0  50840.2  0.0  48494.6  0.0  -315831.0  0.0  -4862.68  0.0 
 7.6  1513.99  0.0  -3559.34  0.0  50840.2  0.0  48494.6  0.0  -315831.0  0.0  -4862.68  0.0 
 7.7  1513.99  0.0  -3559.34  0.0  50840.2  0.0  48494.6  0.0  -315831.0  0.0  -4862.68  0.0 
 7.8  1513.99  0.0  -3559.34  0.0  50840.2  0.0  48494.6  0.0  -315831.0  0.0  -4862.68  0.0 
 7.9  1513.99  0.0  -3559.34  0.0  50840.2  0.0  48494.6  0.0  -315831.0  0.0  -4862.68  0.0 
 8.0  1513.99  0.0  -3559.34  0.0  50840.2  0.0  48494.6  0.0  -315831.0  0.0  -4862.68  0.0 
 8.1  1513.99  0.0  -3559.34  0.0  50840.2  0.0  48494.6  0.0  -315831.0  0.0  -4862.68  0.0 
 8.2  1513.99  0.0  -3559.34  0.0  50840.2  0.0  48494.6  0.0  -315831.0  0.0  -4862.68  0.0 
 8.3  1513.99  0.0  -3559.34  0.0  50840.2  0.0  48494.6  0.0  -315831.0  0.0  -4862.68  0.0 
 8.4  1513.99  0.0  -3559.34  0.0  50840.2  0.0  48494.6  0.0  -315831.0  0.0  -4862.68  0.0 
 8.5  1513.99  0.0  -3559.34  0.0  50840.2  0.0  48494.6  0.0  -315831.0  0.0  -4862.68  0.0 
 8.6  1513.99  0.0  -3559.34  0.0  50840.2  0.0  48494.6  0.0  -315831.0  0.0  -4862.68  0.0 
 8.7  1513.99  0.0  -3559.34  0.0  50840.2  0.0  48494.6  0.0  -315831.0  0.0  -4862.68  0.0 
 8.8  1513.99  0.0  -3559.34  0.0  50840.2  0.0  48494.6  0.0  -315831.0  0.0  -4862.68  0.0 
 8.9  1513.99  0.0  -3559.34  0.0  50840.2  0.0  48494.6  0.0  -315831.0  0.0  -4862.68  0.0 
 9.0  1513.99  0.0  -3559.34  0.0  50840.2  0.0  48494.6  0.0  -315831.0  0.0  -4862.68  0.0 
 9.1  1513.99  0.0  -3559.34  0.0  50840.2  0.0  48494.6  0.0  -315831.0  0.0  -4862.68  0.0 
 9.2  1513.99  0.0  -3559.34  0.0  50840.2  0.0  48494.6  0.0  -315831.0  0.0  -4862.68  0.0 
 9.3  1513.99  0.0  -3559.34  0.0  50840.2  0.0  48494.6  0.0  -315831.0  0.0  -4862.68  0.0 
 9.4  1513.99  0.0  -3559.34  0.0  50840.2  0.0  48494.6  0.0  -315831.0  0.0  -4862.68  0.0 
 9.5  1513.99  0.0  -3559.34  0.0  50840.2  0.0  48494.6  0.0  -315831.0  0.0  -4862.68  0.0 
 9.6  1513.99  0.0  -3559.34  0.0  50840.2  0.0  48494.6  0.0  -315831.0  0.0  -4862.68  0.0 
 9.7  1513.99  0.0  -3559.34  0.0  50840.2  0.0  48494.6  0.0  -315831.0  0.0  -4862.68  0.0 
 9.8  1513.99  0.0  -3559.34  0.0  50840.2  0.0  48494.6  0.0  -315831.0  0.0  -4862.68  0.0 
 9.9  1513.99  0.0  -3559.34  0.0  50840.2  0.0  48494.6  0.0  -315831.0  0.0  -4862.68  0.0 
Zone t="DoF 3",I=	100,F=POINT
 0.0  -5535.21  0.0  7115.26  0.0  -66663.6  0.0  -56900.5  0.0  473053.0  0.0  -94661.4  0.0 
 0.1  -5535.21  0.0  7115.26  0.0  -66663.6  0.0  -56900.5  0.0  473053.0  0.0  -94661.4  0.0 
 0.2  -5535.21  0.0  7115.26  0.0  -66663.6  0.0  -56900.5  0.0  473053.0  0.0  -94661.4  0.0 
 0.3  -5535.21  0.0  7115.26  0.0  -66663.6  0.0  -56900.5  0.0  473053.0  0.0  -94661.4  0.0 
 0.4  -5535.21  0.0  7115.26  0.0  -66663.6  0.0  -56900.5  0.0  473053.0  0.0  -94661.4  0.0 
 0.5  -5535.21  0.0  7115.26  0.0  -66663.6  0.0  -56900.5  0.0  473053.0  0.0  -94661.4  0.0 
 0.6  -5535.21  0.0  7115.26  0.0  -66663.6  0.0  -56900.5  0.0  473053.0  0.0  -94661.4  0.0 
 0.7  -5535.21  0.0  7115.26  0.0  -66663.6  0.0  -56900.5  0.0  473053.0  0.0  -94661.4  0.0 
 0.8  -5535.21  0.0  7115.26  0.0  -66663.6  0.0  -56900.5  0.0  473053.0  0.0  -94661.4  0.0 
 0.9  -5535.21  0.0  7115.26  0.0  -66663.6  0.0  -56900.5  0.0  473053.0  0.0  -94661.4  0.0 
 1.0  -5535.21  0.0  7115.26  0.0  -66663.6  0.0  -56900.5  0.0  473053.0  0.0  -94661.4  0.0 
 1.1  -5535.21  0.0  7115.26  0.0  -66663.6  0.0  -56900.5  0.0  473053.0  0.0  -94661.4  0.0 
 1.2  -5535.21  0.0  7115.26  0.0  -66663.6  0.0  -56900.5  0.0  473053.0  0.0  -94661.4  0.0 
 1.3  -5535.21  0.0  7115.26  0.0  -66663.6  0.0  -56900.5  0.0  473053.0  0.0  -94661.4  0.0 
 1.4  -5535.21  0.0  7115.26  0.0  -66663.6  0.0  -56900.5  0.0  473053.0  0.0  -94661.4  0.0 
 1.5  -5535.21  0.0  7115.26  0.0  -66663.6  0.0  -56900.5  0.0  473053.0  0.0  -94661.4  0.0 
 1.6  -5535.21  0.0  7115.26  0.0  -66663.6  0.0  -56900.5  0.0  473053.0  0.0  -94661.4  0.0 
 1.7  -5535.21  0.0  7115.26  0.0  -66663.6  0.0  -56900.5  0.0  473053.0  0.0  -94661.4  0.0 
 1.8  -5535.21  0.0  7115.26  0.0  -66663.6  0.0  -56900.5  0.0  473053.0  0.0  -94661.4  0.0 
 1.9  -5535.21  0.0  7115.26  0.0  -66663.6  0.0  -56900.5  0.0  473053.0  0.0  -94661.4  0.0 
 2.0  -5535.21  0.0  7115.26  0.0  -66663.6  0.0  -56900.5  0.0  473053.0  0.0  -94661.4  0.0 
 2.1  -5535.21  0.0  7115.26  0.0  -66663.6  0.0  -56900.5  0.0  473053.0  0.0  -94661.4  0.0 
 2.2  -5535.21  0.0  7115.26  0.0  -66663.6  0.0  -56900.5  0.0  473053.0  0.0  -94661.4  0.0 
 2.3  -5535.21  0.0  7115.26  0.0  -66663.6  0.0  -56900.5  0.0  473053.0  0.0  -94661.4  0.0 
 2.4  -5535.21  0.0  7115.26  0.0  -66663.6  0.0  -56900.5  0.0  473053.0  0.0  -94661.4  0.0 
 2.5  -5535.21  0.0  7115.26  0.0  -66663.6  0.0  -56900.5  0.0  473053.0  0.0  -94661.4  0.0 
 2.6  -5535.21  0.0  7115.26  0.0  -66663.6  0.0  -56900.5  0.0  473053.0  0.0  -94661.4  0.0 
 2.7  -5535.21  0.0  7115.26  0.0  -66663.6  0.0  -56900.5  0.0  473053.0  0.0  -94661.4  0.0 
 2.8  -5535.21  0.0  7115.26  0.0  -66663.6  0.0  -56900.5  0.0  473053.0  0.0  -94661.4  0.0 
 2.9  -5535.21  0.0  7115.26  0.0  -66663.6  0.0  -56900.5  0.0  473053.0  0.0  -94661.4  0.0 
 3.0  -5535.21  0.0  7115.26  0.0  -66663.6  0.0  -56900.5  0.0  473053.0  0.0  -94661.4  0.0 
 3.1  -5535.21  0.0  7115.26  0.0  -66663.6  0.0  -56900.5  0.0  473053.0  0.0  -94661.4  0.0 
 3.2  -5535.21  0.0  7115.26  0.0  -66663.6  0.0  -56900.5  0.0  473053.0  0.0  -94661.4  0.0 
 3.3  -5535.21  0.0  7115.26  0.0  -66663.6  0.0  -56900.5  0.0  473053.0  0.0  -94661.4  0.0 
 3.4  -5535.21  0.0  7115.26  0.0  -66663.6  0.0  -56900.5  0.0  473053.0  0.0  -94661.4  0.0 
 3.5  -5535.21  0.0  7115.26  0.0  -66663.6  0.0  -56900.5  0.0  473053.0  0.0  -94661.4  0.0 
 3.6  -5535.21  0.0  7115.26  0.0  -66663.6  0.0  -56900.5  0.0  473053.0  0.0  -94661.4  0.0 
 3.7  -5535.21  0.0  7115.26  0.0  -66663.6  0.0  -56900.5  0.0  473053.0  0.0  -94661.4  0.0 
 3.8  -5535.21  0.0  7115.26  0.0  -66663.6  0.0  -56900.5  0.0  473053.0  0.0  -94661.4  0.0 
 3.9  -5535.21  0.0  7115.26  0.0  -66663.6  0.0  -56900.5  0.0  473053.0  0.0  -94661.4  0.0 
 4.0  -5535.21  0.0  7115.26  0.0  -66663.6  0.0  -56900.5  0.0  473053.0  0.0  -94661.4  0.0 
 4.1  -5535.21  0.0  7115.26  0.0  -66663.6  0.0  -56900.5  0.0  473053.0  0.0  -94661.4  0.0 
 4.2  -5535.21  0.0  7115.26  0.0  -66663.6  0.0  -56900.5  0.0  473053.0  0.0  -94661.4  0.0 
 4.3  -5535.21  0.0  7115.26  0.0  -66663.6  0.0  -56900.5  0.0  473053.0  0.0  -94661.4  0.0 
 4.4  -5535.21  0.0  7115.26  0.0  -66663.6  0.0  -56900.5  0.0  473053.0  0.0  -94661.4  0.0 
 4.5  -5535.21  0.0  7115.26  0.0  -66663.6  0.0  -56900.5  0.0  473053.0  0.0  -94661.4  0.0 
 4.6  -5535.21  0.0  7115.26  0.0  -66663.6  0.0  -56900.5  0.0  473053.0  0.0  -94661.4  0.0 
 4.7  -5535.21  0.0  7115.26  0.0  -66663.6  0.0  -56900.5  0.0  473053.0  0.0  -94661.4  0.0 
 4.8  -5535.21  0.0  7115.26  0.0  -66663.6  0.0  -56900.5  0.0  473053.0  0.0  -94661.4  0.0 
 4.9  -5535.21  0.0  7115.26  0.0  -66663.6  0.0  -56900.5  0.0  473053.0  0.0  -94661.4  0.0 
 5.0  -5535.21  0.0  7115.26  0.0  -66663.6  0.0  -56900.5  0.0  473053.0  0.0  -94661.4  0.0 
 5.1  -5535.21  0.0  7115.26  0.0  -66663.6  0.0  -56900.5  0.0  473053.0  0.0  -94661.4  0.0 
 5.2  -5535.21  0.0  7115.26  0.0  -66663.6  0.0  -56900.5  0.0  473053.0  0.0  -94661.4  0.0 
 5.3  -5535.21  0.0  7115.26  0.0  -66663.6  0.0  -56900.5  0.0  473053.0  0.0  -94661.4  0.0 
 5.4  -5535.21  0.0  7115.26  0.0  -66663.6  0.0  -56900.5  0.0  473053.0  0.0  -94661.4  0.0 
 5.5  -5535.21  0.0  7115.26  0.0  -66663.6  0.0  -56900.5  0.0  473053.0  0.0  -94661.4  0.0 
 5.6  -5535.21  0.0  7115.26  0.0  -66663.6  0.0  -56900.5  0.0  473053.0  0.0  -94661.4  0.0 
 5.7  -5535.21  0.0  7115.26  0.0  -66663.6  0.0  -56900.5  0.0  473053.0  0.0  -94661.4  0.0 
 5.8  -5535.21  0.0  7115.26  0.0  -66663.6  0.0  -56900.5  0.0  473053.0  0.0  -94661.4  0.0 
 5.9  -5535.21  0.0  7115.26  0.0  -66663.6  0.0  -56900.5  0.0  473053.0  0.0  -94661.4  0.0 
 6.0  -5535.21  0.0  7115.26  0.0  -66663.6  0.0  -56900.5  0.0  473053.0  0.0  -94661.4  0.0 
 6.1  -5535.21  0.0  7115.26  0.0  -66663.6  0.0  -56900.5  0.0  473053.0  0.0  -94661.4  0.0 
 6.2  -5535.21  0.0  7115.26  0.0  -66663.6  0.0  -56900.5  0.0  473053.0  0.0  -94661.4  0.0 
 6.3  -5535.21  0.0  7115.26  0.0  -66663.6  0.0  -56900.5  0.0  473053.0  0.0  -94661.4  0.0 
 6.4  -5535.21  0.0  7115.26  0.0  -66663.6  0.0  -56900.5  0.0  473053.0  0.0  -94661.4  0.0 
 6.5  -5535.21  0.0  7115.26  0.0  -66663.6  0.0  -56900.5  0.0  473053.0  0.0  -94661.4  0.0 
 6.6  -5535.21  0.0  7115.26  0.0  -66663.6  0.0  -56900.5  0.0  473053.0  0.0  -94661.4  0.0 
 6.7  -5535.21  0.0  7115.26  0.0  -66663.6  0.0  -56900.5  0.0  473053.0  0.0  -94661.4  0.0 
 6.8  -5535.21  0.0  7115.26  0.0  -66663.6  0.0  -56900.5  0.0  473053.0  0.0  -94661.4  0.0 
 6.9  -5535.21  0.0  7115.26  0.0  -66663.6  0.0  -56900.5  0.0  473053.0  0.0  -94661.4  0.0 
 7.0  -5535.21  0.0  7115.26  0.0  -66663.6  0.0  -56900.5  0.0  473053.0  0.0  -94661.4  0.0 
 7.1  -5535.21  0.0  7115.26  0.0  -66663.6  0.0  -56900.5  0.0  473053.0  0.0  -94661.4  0.0 
 7.2  -5535.21  0.0  7115.26  0.0  -66663.6  0.0  -56900.5  0.0  473053.0  0.0  -94661.4  0.0 
 7.3  -5535.21  0.0  7115.26  0.0  -66663.6  0.0  -56900.5  0.0  473053.0  0.0  -94661.4  0.0 
 7.4  -5535.21  0.0  7115.26  0.0  -66663.6  0.0  -56900.5  0.0  473053.0  0.0  -94661.4  0.0 
 7.5  -5535.21  0.0  7115.26  0.0  -66663.6  0.0  -56900.5  0.0  473053.0  0.0  -94661.4  0.0 
 7.6  -5535.21  0.0  7115.26  0.0  -66663.6  0.0  -56900.5  0.0  473053.0  0.0  -94661.4  0.0 
 7.7  -5535.21  0.0  7115.26  0.0  -66663.6  0.0  -56900.5  0.0  473053.0  0.0  -94661.4  0.0 
 7.8  -5535.21  0.0  7115.26  0.0  -66663.6  0.0  -56900.5  0.0  473053.0  0.0  -94661.4  0.0 
 7.9  -5535.21  0.0  7115.26  0.0  -66663.6  0.0  -56900.5  0.0  473053.0  0.0  -94661.4  0.0 
 8.0  -5535.21  0.0  7115.26  0.0  -66663.6  0.0  -56900.5  0.0  473053.0  0.0  -94661.4  0.0 
 8.1  -5535.21  0.0  7115.26  0.0  -66663.6  0.0  -56900.5  0.0  473053.0  0.0  -94661.4  0.0 
 8.2  -5535.21  0.0  7115.26  0.0  -66663.6  0.0  -56900.5  0.0  473053.0  0.0  -94661.4  0.0 
 8.3  -5535.21  0.0  7115.26  0.0  -66663.6  0.0  -56900.5  0.0  473053.0  0.0  -94661.4  0.0 
 8.4  -5535.21  0.0  7115.26  0.0  -66663.6  0.0  -56900.5  0.0  473053.0  0.0  -94661.4  0.0 
 8.5  -5535.21  0.0  7115.26  0.0  -66663.6  0.0  -56900.5  0.0  473053.0  0.0  -94661.4  0.0 
 8.6  -5535.21  0.0  7115.26  0.0  -66663.6  0.0  -56900.5  0.0  473053.0  0.0  -94661.4  0.0 
 8.7  -5535.21  0.0  7115.26  0.0  -66663.6  0.0  -56900.5  0.0  473053.0  0.0  -94661.4  0.0 
 8.8  -5535.21  0.0  7115.26  0.0  -66663.6  0.0  -56900.5  0.0  473053.0  0.0  -94661.4  0.0 
 8.9  -5535.21  0.0  7115.26  0.0  -66663.6  0.0  -56900.5  0.0  473053.0  0.0  -94661.4  0.0 
 9.0  -5535.21  0.0  7115.26  0.0  -66663.6  0.0  -56900.5  0.0  473053.0  0.0  -94661.4  0.0 
 9.1  -5535.21  0.0  7115.26  0.0  -66663.6  0.0  -56900.5  0.0  473053.0  0.0  -94661.4  0.0 
 9.2  -5535.21  0.0  7115.26  0.0  -66663.6  0.0  -56900.5  0.0  473053.0  0.0  -94661.4  0.0 
 9.3  -5535.21  0.0  7115.26  0.0  -66663.6  0.0  -56900.5  0.0  473053.0  0.0  -94661.4  0.0 
 9.4  -5535.21  0.0  7115.26  0.0  -66663.6  0.0  -56900.5  0.0  473053.0  0.0  -94661.4  0.0 
 9.5  -5535.21  0.0  7115.26  0.0  -66663.6  0.0  -56900.5  0.0  473053.0  0.0  -94661.4  0.0 
 9.6  -5535.21  0.0  7115.26  0.0  -66663.6  0.0  -56900.5  0.0  473053.0  0.0  -94661.4  0.0 
 9.7  -5535.21  0.0  7115.26  0.0  -66663.6  0.0  -56900.5  0.0  473053.0  0.0  -94661.4  0.0 
 9.8  -5535.21  0.0  7115.26  0.0  -66663.6  0.0  -56900.5  0.0  473053.0  0.0  -94661.4  0.0 
 9.9  -5535.21  0.0  7115.26  0.0  -66663.6  0.0  -56900.5  0.0  473053.0  0.0  -94661.4  0.0 
Zone t="DoF 4",I=	100,F=POINT
 0.0  44160.2  0.0  -54525.6  0.0  530503.0  0.0  369568.0  0.0  -4.0858e+06  0.0  148138.0  0.0 
 0.1  44160.2  0.0  -54525.6  0.0  530503.0  0.0  369568.0  0.0  -4.0858e+06  0.0  148138.0  0.0 
 0.2  44160.2  0.0  -54525.6  0.0  530503.0  0.0  369568.0  0.0  -4.0858e+06  0.0  148138.0  0.0 
 0.3  44160.2  0.0  -54525.6  0.0  530503.0  0.0  369568.0  0.0  -4.0858e+06  0.0  148138.0  0.0 
 0.4  44160.2  0.0  -54525.6  0.0  530503.0  0.0  369568.0  0.0  -4.0858e+06  0.0  148138.0  0.0 
 0.5  44160.2  0.0  -54525.6  0.0  530503.0  0.0  369568.0  0.0  -4.0858e+06  0.0  148138.0  0.0 
 0.6  44160.2  0.0  -54525.6  0.0  530503.0  0.0  369568.0  0.0  -4.0858e+06  0.0  148138.0  0.0 
 0.7  44160.2  0.0  -54525.6  0.0  530503.0  0.0  369568.0  0.0  -4.0858e+06  0.0  148138.0  0.0 
 0.8  44160.2  0.0  -54525.6  0.0  530503.0  0.0  369568.0  0.0  -4.0858e+06  0.0  148138.0  0.0 
 0.9  44160.2  0.0  -54525.6  0.0  530503.0  0.0  369568.0  0.0  -4.0858e+06  0.0  148138.0  0.0 
 1.0  44160.2  0.0  -54525.6  0.0  530503.0  0.0  369568.0  0.0  -4.0858e+06  0.0  148138.0  0.0 
 1.1  44160.2  0.0  -54525.6  0.0  530503.0  0.0  369568.0  0.0  -4.0858e+06  0.0  148138.0  0.0 
 1.2  44160.2  0.0  -54525.6  0.0  530503.0  0.0  369568.0  0.0  -4.0858e+06  0.0  148138.0  0.0 