VARIABLES="w (rad/s)"
"abs(F	1	1)" "angle(F	1	1)"
"abs(F	1	2)" "angle(F	1	2)"
"abs(F	1	3)" "angle(F	1	3)"
"abs(F	1	4)" "angle(F	1	4)"
"abs(F	1	5)" "angle(F	1	5)"
"abs(F	1	6)" "angle(F	1	6)"
"abs(F	2	7)" "angle(F	2	7)"
"abs(F	2	8)" "angle(F	2	8)"
"abs(F	2	9)" "angle(F	2	9)"
"abs(F	2	10)" "angle(F	2	10)"
"abs(F	2	11)" "angle(F	2	11)"
"abs(F	2	12)" "angle(F	2	12)"
Zone t="FKforce - beta =	45.0000012522",I=	40,F=POINT
0.1	12392.6	-1.5708	12392.6	-1.5708	488262.0	3.75503e-10	10277.1	1.5708	10258.7	-1.57079	0.0156347	-0.0351418	24782.5	-1.06426	24782.5	-1.06426	976421.0	0.50654	41052.6	2.07732	9.76421e+07	-2.63463	2.47823e+06	-1.06427	
0.148718	18451.6	-1.5708	18451.6	-1.5708	485555.0	-3.3586e-10	15304.0	1.57076	15276.7	-1.57079	0.0108113	3.02844	36894.5	-0.81435	36894.4	-0.814352	970879.0	0.756445	61044.2	2.32724	9.70879e+07	-2.38452	3.68944e+06	-0.814349	
0.197436	24536.8	-1.5708	24536.8	-1.5708	481794.0	-4.91886e-10	20355.2	1.57081	20319.1	-1.5708	0.0163702	-0.302885	49052.7	-0.560707	49052.9	-0.560708	963182.0	1.01009	81025.1	2.58089	9.63182e+07	-2.13066	4.90528e+06	-0.560713	
0.246154	30657.5	-1.5708	30657.5	-1.5708	476989.0	-1.07966e-10	25439.7	1.5708	25394.8	-1.5708	0.0108773	-2.37207	61274.1	-0.301994	61274.1	-0.301992	953342.0	1.2688	100995.0	2.8396	9.53342e+07	-1.87173	6.12741e+06	-0.301994	
0.294872	36824.3	-1.5708	36824.3	-1.5708	471149.0	-2.4897e-10	30567.2	1.57079	30513.6	-1.57079	0.0149385	-0.197396	73576.8	-0.0367939	73576.9	-0.0367949	941379.0	1.534	120953.0	3.1048	9.4138e+07	-1.60631	7.35768e+06	-0.0367942	
0.34359	43048.6	-1.5708	43048.6	-1.5708	464288.0	4.02595e-10	35748.8	1.5708	35686.5	-1.5708	0.00979305	-3.06673	85980.7	0.236436	85980.8	0.236436	927319.0	1.80723	140902.0	-2.90515	9.2732e+07	-1.33284	8.59808e+06	0.236436	
0.392308	49343.0	-1.5708	49343.0	-1.5708	456424.0	6.24746e-10	40996.5	1.5708	40925.7	-1.5708	0.0197633	0.474697	98507.5	0.519368	98507.6	0.51937	911195.0	2.09016	160843.0	-2.62222	9.11196e+07	-1.04966	9.85076e+06	0.519366	
0.441026	55721.8	-1.5708	55721.8	-1.5708	447577.0	-2.42905e-09	46324.1	1.5708	46245.1	-1.5708	0.0228193	-2.96413	111181.0	0.813858	111181.0	0.813859	893046.0	2.38465	180784.0	-2.32773	8.93047e+07	-0.754916	1.11181e+07	0.813856	
0.489744	62200.4	-1.5708	62200.4	-1.5708	437776.0	-5.70755e-10	51747.0	1.5708	51659.9	-1.5708	0.0171125	0.244979	124027.0	1.12195	124027.0	1.12195	872922.0	2.69275	200730.0	-2.01964	8.72924e+07	-0.446546	1.24028e+07	1.12195	
0.538462	68796.0	-1.5708	68796.0	-1.5708	427052.0	2.03217e-09	57282.7	1.5708	57187.5	-1.5708	0.0390816	2.75065	137074.0	1.44594	137074.0	1.44594	850885.0	3.01673	220692.0	-1.69566	8.50888e+07	-0.122268	1.37074e+07	1.44593	
0.587179	75526.9	-1.5708	75526.9	-1.5708	415446.0	2.1119e-10	62950.0	1.5708	62847.1	-1.5708	0.0229037	0.626445	150348.0	1.78833	150349.0	1.78833	827011.0	-2.92406	240678.0	-1.35326	8.27014e+07	0.220439	1.50349e+07	1.78832	
0.635897	82411.8	-1.5708	82411.8	-1.5708	403007.0	1.32518e-09	68769.6	1.5708	68659.1	-1.5708	0.0374619	0.137289	163878.0	2.1519	163879.0	2.1519	801391.0	-2.56049	260696.0	-0.989688	8.01395e+07	0.584358	1.63879e+07	2.1519	
0.684615	89469.8	-1.5708	89469.8	-1.5708	389792.0	1.41415e-09	74763.2	1.5708	74645.5	-1.5708	0.0210825	-0.494726	177689.0	2.5397	177690.0	2.5397	774135.0	-2.17269	280753.0	-0.601891	7.74141e+07	0.972528	1.7769e+07	2.5397	
0.733333	96717.2	-1.5708	96717.2	-1.5708	375872.0	-2.77573e-09	80952.2	1.5708	80827.6	-1.5708	0.00710948	-0.2783	191796.0	2.95494	191798.0	2.95494	745378.0	-1.75745	300843.0	-0.186652	7.45385e+07	1.38818	1.91798e+07	2.95494	
0.782051	104168.0	-1.5708	104168.0	-1.5708	361328.0	3.03526e-09	87356.8	1.57079	87225.7	-1.5708	0.0240451	-1.06173	206207.0	-2.88218	206209.0	-2.88218	715275.0	-1.31138	320949.0	0.259412	7.15281e+07	1.83469	2.06209e+07	-2.88218	
0.830769	111826.0	-1.5708	111826.0	-1.5708	346253.0	-1.01853e-08	93993.4	1.57079	93856.1	-1.5708	0.0249788	1.64907	220906.0	-2.40194	220909.0	-2.40194	684004.0	-0.831142	341034.0	0.739655	6.84013e+07	2.31543	2.20909e+07	-2.40194	
0.879487	119688.0	-1.5708	119688.0	-1.5708	330751.0	1.23985e-09	100871.0	1.5708	100728.0	-1.5708	0.0203912	-1.27934	235855.0	-1.88432	235858.0	-1.88432	651772.0	-0.31352	361029.0	1.25728	6.51782e+07	2.83361	2.35858e+07	-1.88432	
0.928205	127734.0	-1.5708	127734.0	-1.5708	314933.0	-6.05636e-09	107991.0	1.5708	107843.0	-1.5708	0.00312653	0.896055	250979.0	-1.32651	250983.0	-1.32651	618800.0	0.244288	380828.0	1.81508	6.18812e+07	-2.89116	2.50983e+07	-1.32651	
0.976923	135927.0	-1.5708	135927.0	-1.5708	298918.0	7.70806e-09	115339.0	1.57079	115186.0	-1.5708	0.0184839	-1.35786	266165.0	-0.726336	266169.0	-0.726336	585325.0	0.84446	400281.0	2.41526	5.85338e+07	-2.2903	2.66169e+07	-0.726341	
1.02564	144211.0	-1.5708	144211.0	-1.5708	282821.0	6.83842e-09	122888.0	1.5708	122732.0	-1.5708	0.00900346	0.708626	281255.0	-0.0823789	281261.0	-0.082379	551586.0	1.48842	419193.0	3.05921	5.51602e+07	-1.64558	2.81261e+07	-0.0823838	
1.07436	152513.0	-1.5708	152513.0	-1.5708	266753.0	-1.04965e-08	130596.0	1.5708	130437.0	-1.5708	0.0162532	2.57026	296055.0	0.605937	296062.0	0.605937	517818.0	2.17673	437328.0	-2.53566	5.17836e+07	-0.95642	2.96062e+07	0.605931	
1.12308	160742.0	-1.5708	160742.0	-1.5708	250815.0	-7.25479e-09	138409.0	1.5708	138248.0	-1.5708	0.0130015	0.598419	310340.0	1.33837	310349.0	1.33837	484241.0	2.90916	454423.0	-1.80322	4.84262e+07	-0.22305	3.10349e+07	1.33836	
1.17179	168801.0	-1.5708	168801.0	-1.5708	235094.0	-1.21697e-09	146262.0	1.5708	146101.0	-1.5708	0.00402647	-2.89661	323865.0	2.11404	323876.0	2.11404	451058.0	-2.59835	470201.0	-1.02755	4.51082e+07	0.553664	3.23876e+07	2.11404	
1.22051	176586.0	-1.5708	176586.0	-1.5708	219666.0	1.23471e-08	154085.0	1.5708	153924.0	-1.5708	0.0205601	-0.0713075	336384.0	2.93168	336397.0	2.93168	418448.0	-1.78071	484388.0	-0.209915	4.18475e+07	1.37245	3.36397e+07	2.93167	
1.26923	183998.0	-1.5708	183998.0	-1.5708	204594.0	-1.10752e-08	161806.0	1.5708	161647.0	-1.5708	0.0583021	1.1934	347656.0	-2.49337	347672.0	-2.49337	386572.0	-0.922576	496731.0	0.64822	3.86604e+07	2.23186	3.47672e+07	-2.49338	
1.31795	190941.0	-1.5708	190941.0	-1.5708	189932.0	-1.0464e-08	169354.0	1.5708	169198.0	-1.5708	0.0101956	2.85014	357462.0	-1.59613	357481.0	-1.59613	355573.0	-0.0253338	507008.0	1.54546	3.55609e+07	3.13051	3.57481e+07	-1.59614	
1.36667	197329.0	-1.5708	197329.0	-1.5708	175724.0	1.30033e-08	176661.0	1.5708	176509.0	-1.5708	0.0244141	-1.287	365605.0	-0.661027	365628.0	-0.661027	325576.0	0.909769	515031.0	2.48057	3.25617e+07	-2.21602	3.65628e+07	-0.661036	
1.41538	203085.0	-1.5708	203085.0	-1.5708	162011.0	-4.99172e-09	183661.0	1.5708	183514.0	-1.5708	0.0144188	-1.07685	371918.0	0.310897	371944.0	0.310897	296695.0	1.88169	520653.0	-2.8307	2.96741e+07	-1.24236	3.71944e+07	0.310888	
1.4641	208143.0	-1.5708	208143.0	-1.5708	148827.0	-5.48521e-09	190293.0	1.5708	190153.0	-1.5708	0.00840071	0.62025	376261.0	1.31885	376291.0	1.31885	269032.0	2.88965	523761.0	-1.82274	2.69082e+07	-0.232489	3.76291e+07	1.31884	
1.51282	212444.0	-1.5708	212444.0	-1.5708	136201.0	-4.70531e-09	196497.0	1.5708	196365.0	-1.5708	0.0173047	-1.28474	378526.0	2.3622	378561.0	2.3622	242676.0	-2.35019	524282.0	-0.779389	2.42732e+07	0.812996	3.78561e+07	2.36219	
1.56154	215939.0	-1.5708	215939.0	-1.5708	124161.0	7.71169e-09	202215.0	1.5708	202092.0	-1.5708	0.00976562	1.5708	378636.0	-2.84261	378675.0	-2.84261	217703.0	-1.27181	522176.0	0.298986	2.17765e+07	1.89375	3.78675e+07	-2.84262	
1.61026	218588.0	-1.5708	218588.0	-1.5708	112726.0	3.43141e-08	207391.0	1.5708	207277.0	-1.5708	0.0105179	-1.19029	376542.0	-1.72955	376587.0	-1.72955	194177.0	-0.158752	517431.0	1.41204	1.94246e+07	3.00947	3.76587e+07	-1.72956	
1.65897	220357.0	-1.5708	220357.0	-1.5708	101914.0	7.78556e-09	211969.0	1.5708	211865.0	-1.5708	0.0270104	1.78947	372229.0	-0.581923	372279.0	-0.581923	172147.0	0.988873	510066.0	2.55967	1.72222e+07	-2.12311	3.72278e+07	-0.581934	
1.70769	221220.0	-1.5708	221220.0	-1.5708	91736.6	-2.62182e-08	215892.0	1.5708	215799.0	-1.5708	0.0391996	-1.33186	365710.0	0.600067	365765.0	0.600066	151646.0	2.17086	500127.0	-2.54153	1.51729e+07	-0.937778	3.65765e+07	0.600055	
1.75641	221158.0	-1.5708	221158.0	-1.5708	82200.5	-4.411e-08	219107.0	1.5708	219025.0	-1.5708	0.00460644	-2.1294	357032.0	1.81637	357092.0	1.81637	132693.0	-2.89602	487687.0	-1.32522	1.32782e+07	0.282293	3.57092e+07	1.81636	
1.80513	220160.0	-1.5708	220160.0	-1.5708	73307.3	6.1768e-08	221558.0	1.5708	221487.0	-1.5708	0.0125156	-1.92957	346270.0	3.06696	346335.0	3.06696	115288.0	-1.64543	472841.0	-0.0746329	1.15385e+07	1.53713	3.46335e+07	3.06695	
1.85385	218219.0	-1.5708	218219.0	-1.5708	65053.8	2.8997e-08	223190.0	1.5708	223131.0	-1.5708	0.00828641	-2.35619	333534.0	-1.93138	333603.0	-1.93138	99419.2	-0.360587	455713.0	1.21021	9.95235e+06	2.82679	3.33604e+07	-1.9314	
1.90256	215338.0	-1.5708	215338.0	-1.5708	57431.9	-5.15429e-08	223954.0	1.5708	223906.0	-1.5708	0.0244336	1.61077	318961.0	-0.612284	319034.0	-0.612284	85056.4	0.958512	436448.0	2.52931	8.51682e+06	-2.13184	3.19035e+07	-0.612296	
1.95128	211524.0	-1.5708	211524.0	-1.5708	50429.2	-1.99324e-08	223798.0	1.5708	223761.0	-1.5708	0.0618255	-1.66968	302719.0	0.741034	302796.0	0.741034	72157.6	2.31183	415221.0	-2.40056	7.22769e+06	-0.772309	3.02796e+07	0.741022	
2.0	206791.0	-1.5708	206791.0	-1.5708	44029.1	1.81945e-09	222676.0	1.5708	222650.0	-1.5708	0.0390656	-1.5833	285003.0	2.12857	285084.0	2.12857	60667.4	-2.58382	392227.0	-1.01302	6.07939e+06	0.622305	2.85084e+07	2.12856	
