VARIABLES="w (rad/s)"
"A	1	1" "B	1	1"
"A	1	2" "B	1	2"
"A	1	3" "B	1	3"
"A	1	4" "B	1	4"
"A	1	5" "B	1	5"
"A	1	6" "B	1	6"
"A	2	1" "B	2	1"
"A	2	2" "B	2	2"
"A	2	3" "B	2	3"
"A	2	4" "B	2	4"
"A	2	5" "B	2	5"
"A	2	6" "B	2	6"
Zone t="Motion of body	1	in DoF	1",I=	40,F=POINT
0.1	187649.0	6.18633	-0.00398636	1.92784e-07	-2.02867	0.326733	0.000917912	-1.42492e-07	84934.6	4.12435	0.00701904	9.59262e-07	-369.243	9.63348	-0.000202656	-9.77516e-06	-4530.89	-129.995	-0.00131607	6.07967e-05	452595.0	13012.0	0.0568581	-2.67029e-05	
0.148718	188253.0	20.7494	-0.000256506	-5.73695e-07	-6.54774	0.549161	0.000620423	5.42495e-08	85473.1	13.8393	0.00810557	5.84871e-06	-392.31	23.5267	-0.000331854	4.36306e-05	-4345.45	-398.855	-0.00166729	0.000155449	433996.0	39916.8	-0.0434905	0.0106897	
0.197436	188787.0	49.9087	0.00216397	1.86265e-07	-12.8505	-0.188702	0.00130297	-9.82545e-08	85653.2	33.2712	-0.0174664	7.21216e-06	-644.102	33.2178	-5.31333e-05	-5.19753e-05	-3682.21	-844.556	0.000714884	0.000577927	367379.0	84500.9	0.0795647	-0.00599289	
0.246154	189925.0	100.668	-0.00151873	2.13832e-06	-15.4453	-3.41949	-0.000309944	-2.26498e-06	86785.1	67.1842	-0.000743866	1.24574e-05	-950.689	15.466	0.000211149	2.47955e-05	-2328.19	-1423.04	-3.09944e-05	0.000324249	231594.0	142330.0	0.0481227	0.0134354	
0.294872	190806.0	182.028	-0.00302721	-4.75347e-06	-4.54125	-9.06959	-0.000582156	-6.9337e-07	87233.9	121.428	-0.0146962	-3.93391e-05	-1265.38	-71.3029	-2.02137e-05	2.67029e-05	-251.127	-2018.17	-0.00010026	-0.000839233	23478.7	201741.0	0.00402981	-0.00730133	
0.34359	192438.0	306.972	0.00381925	-1.78516e-05	24.631	-12.522	0.000618963	3.18419e-06	88737.4	205.026	0.02709	0.000104308	-1425.22	-296.442	-8.67381e-05	-0.00015831	2390.06	-2438.43	-0.000163762	0.000488281	-240860.0	243488.0	-0.0181359	-0.071537	
0.392308	193952.0	489.561	0.000641767	4.88758e-06	58.9327	-4.74004	0.000661214	-9.53302e-06	89945.8	327.242	0.0556976	9.72748e-05	-1300.96	-669.39	0.000736573	0.000301361	5232.71	-2429.85	0.000894584	3.8147e-05	-524864.0	242131.0	-0.0627181	-0.0584679	
0.441026	195640.0	747.174	0.000691968	-2.3067e-05	66.8473	20.2634	-0.000339497	-1.85817e-05	91012.5	499.129	-0.0114867	-0.000165462	-755.551	-1171.17	-0.000514651	-0.000247955	7802.11	-1758.92	-0.00320035	-9.91821e-05	-781056.0	174413.0	-0.22726	-0.0249271	
0.489744	197915.0	1097.12	-0.00118395	5.0962e-05	12.8333	51.8587	-0.00213423	-1.66744e-05	92910.3	734.119	0.0224328	0.00015378	473.877	-1685.5	-0.00143321	1.52588e-05	9433.32	-252.748	0.000623134	7.62939e-06	-942825.0	23170.6	0.0123848	-0.00739288	
0.538462	200485.0	1578.42	-0.00541251	9.20296e-05	-96.2711	53.5424	0.00033474	-2.98768e-05	94982.0	1056.98	-0.0120152	-0.000532627	2322.42	-1978.59	-0.000325884	-0.000217915	9430.0	2061.51	0.00569589	0.000864029	-940135.0	-208576.0	0.0283661	-0.00718689	
0.587179	203401.0	2252.52	-0.00187103	-6.46114e-05	-176.928	-15.3795	-0.000146175	-9.64105e-06	97320.3	1510.66	-0.0269221	-0.000418663	4654.82	-1639.66	6.49665e-06	0.000234604	7210.36	4849.27	0.00090953	0.00457001	-715323.0	-486926.0	0.0361149	0.0784912	
0.635897	206451.0	3247.54	-0.00251955	0.000164509	-92.1283	-132.768	0.00208612	1.64434e-05	99412.8	2179.72	-0.0262993	-0.000190735	6775.25	-154.375	5.99892e-05	0.000507355	2580.28	7302.13	0.000779859	-0.00430298	-249848.0	-730394.0	0.00584895	-0.0266113	
0.684615	210182.0	4721.82	0.00332093	-0.000291348	179.786	-157.139	-0.000633818	0.00029844	102332.0	3172.39	-0.00739966	-0.000440598	7374.97	2816.27	0.000333277	-0.000640869	-3879.62	8269.56	0.00131221	-0.00314331	396783.0	-823578.0	-0.00354381	0.163254	
0.733333	214338.0	6666.76	-0.00110279	4.81606e-05	356.487	66.8882	-0.00361269	-4.82798e-06	105842.0	4494.74	-0.035123	0.000905991	4830.94	6822.37	0.000925931	-0.00157928	-10483.3	6338.55	0.00131087	-0.00131226	1.05404e+06	-625770.0	-0.162464	-0.0791893	
0.782051	218495.0	8987.2	-0.00128774	0.000330925	35.6498	360.385	-0.00166821	-0.000307202	109225.0	6078.66	-0.00952148	0.00101852	-1985.31	10068.1	0.000565826	-0.000354767	-14472.6	884.793	-0.010419	-0.00105286	1.44493e+06	-76694.9	-0.152266	0.0306091	
0.830769	223724.0	12045.5	0.000220405	0.000654221	-555.148	148.314	0.00347137	-0.000269294	113143.0	8155.91	0.0843415	0.00277328	-12095.8	9052.82	7.34682e-05	0.00187874	-13031.6	-7070.22	-0.00716315	-0.00508118	1.28918e+06	717466.0	-0.0146661	0.240448	
0.879487	229965.0	17094.0	-0.00333113	-0.000219345	-305.384	-578.231	-0.00289305	0.00121754	117846.0	11612.6	-0.056074	-0.00556946	-20231.7	-210.735	0.000884832	0.00202942	-4577.26	-14071.0	3.46993e-05	0.0131226	434635.0	1.40682e+06	0.0532461	0.380219	
0.928205	234849.0	24684.3	0.0010521	0.000972748	793.908	-344.874	-0.00294464	-0.000637054	121969.0	16860.6	0.015913	0.00488281	-16788.8	-16924.1	-0.00199888	-0.000274658	8357.53	-14331.0	0.00257579	-0.00372314	-854665.0	1.41397e+06	-0.0479362	0.495941	
0.976923	238635.0	32187.4	0.00112458	0.000181198	337.413	970.9	-0.00262989	0.000905991	125494.0	22088.1	-0.0137449	-0.00374603	3880.79	-29215.8	-0.00171812	0.000747681	17721.8	-4438.78	-0.00274899	0.000976562	-1.76781e+06	411436.0	-0.0228353	-0.0307922	
1.02564	246069.0	40598.5	-0.00437393	-0.000846863	-1238.26	128.214	0.00315399	-0.00109673	131925.0	28047.9	0.0115448	0.0078125	31964.2	-18250.9	-0.000952149	-0.000408173	15554.8	11570.6	0.000714111	-0.00302887	-1.5203e+06	-1.17704e+06	-0.32655	0.21283	
1.07436	252367.0	58407.5	0.00386313	-0.00462341	386.018	-1476.44	0.00063557	-0.00108492	137099.0	40605.6	0.00852162	0.0140076	38016.4	23191.4	0.000681729	-0.00686646	-471.591	21471.7	-0.000426081	0.0055542	88475.3	-2.12186e+06	0.0937378	-0.000427246	
1.12308	248655.0	75107.1	-0.00407598	-0.00484848	1117.0	1191.82	-0.000694615	0.00120449	135142.0	52503.1	0.00999973	0.00228882	-1596.4	55859.3	-0.00173908	-0.00228882	-17151.4	11227.7	0.000706503	0.0045166	1.71337e+06	-1.06276e+06	-0.599549	-0.310181	
1.17179	253531.0	87288.5	0.014376	0.00375366	-1619.38	448.7	-0.00255063	-0.00173092	139788.0	61496.6	0.0916729	0.00564575	-52133.0	27054.6	-0.00942773	-0.00199509	-17490.9	-11675.9	0.00520869	0.00110245	1.69364e+06	1.19632e+06	0.337653	0.153748	
1.22051	254545.0	120956.0	0.00152524	-0.00117493	828.285	-1833.32	0.000514143	-0.0039506	142206.0	86214.5	-0.0208032	-0.00012207	-44255.9	-56976.4	0.00106267	-0.00408936	2247.68	-24634.3	-0.000850132	-0.0100098	-271509.0	2.40322e+06	0.444269	-1.26396	
1.26923	240375.0	136917.0	-0.00351045	-0.00268555	440.025	1975.23	0.00104592	-0.00263405	133614.0	98720.1	-0.00923296	-0.0299683	31833.7	-75117.1	0.00360662	-0.000335693	18374.8	-6573.57	-0.00702089	0.000244141	-1.8041e+06	578596.0	0.744503	-0.145569	
1.31795	244947.0	160283.0	-0.0131522	0.00430298	-1294.98	-1137.59	-0.00102462	0.00279427	138173.0	116736.0	-0.0742824	-0.0406494	71460.6	20404.8	0.00175981	-0.00360107	10998.7	20068.8	-0.00481632	0.015686	-1.02557e+06	-1.98576e+06	0.126614	1.00552	
1.36667	223857.0	195894.0	0.00978051	-0.00338745	1385.78	-34.7185	-0.00269076	0.00127792	124530.0	144581.0	-0.0142912	-0.0216064	-2309.68	101439.0	0.0050689	0.000671387	-11341.8	18456.9	0.0028359	0.000976562	1.13191e+06	-1.74052e+06	-1.24798	0.490662	
1.41538	215761.0	201871.0	-0.00293234	-0.00778198	-943.039	1044.42	0.000144191	0.00592327	120060.0	151276.0	-0.0106944	-0.0272217	-73191.7	18921.5	-0.00224238	-0.000762939	-14801.8	-9747.28	0.00215613	-0.00112915	1.40441e+06	994505.0	0.283747	-0.0122986	
1.4641	203696.0	240715.0	-0.00329333	-0.0115967	389.542	-1526.42	-0.00168314	-0.0011282	112491.0	183033.0	-0.038853	0.0252686	-21850.5	-105933.0	-0.0014747	-0.00683594	4153.71	-21631.8	-0.0151118	0.00891113	-438129.0	2.05364e+06	0.940413	0.242493	
1.51282	179450.0	241812.0	-0.00137174	-0.000152588	193.397	1590.53	0.00043119	-0.00330925	95052.0	186528.0	0.0154926	0.0458984	65152.2	-42135.6	-0.00710077	-0.00389862	13234.6	2360.93	0.011216	0.00177002	-1.25628e+06	-279889.0	0.0345961	-0.200867	
1.56154	177897.0	266287.0	-0.0034787	0.00476074	-649.763	-1596.27	-0.00452183	0.00345707	95369.0	209181.0	-0.000625385	0.0239258	33022.9	98374.9	-0.00385003	0.00952148	-32.1975	19575.5	0.000254063	-0.00744629	37623.6	-1.8556e+06	-0.0545648	0.630005	
1.61026	144023.0	268459.0	-0.00602674	0.0133667	875.262	1439.8	-0.0045852	0.0100288	69873.2	214864.0	0.0277457	-0.0175781	-56774.5	48940.5	0.00507914	-0.0161438	-10599.4	503.95	-0.000833888	0.00970459	1.00062e+06	759.69	-0.594714	1.00032	
1.65897	151877.0	280467.0	0.00537147	0.00488281	-1041.68	-1455.11	0.00286049	0.00658751	76758.6	228398.0	0.0244292	-0.10083	-32518.9	-91282.3	0.00551863	0.00415039	-892.541	-16292.0	-0.0040286	0.00732422	55220.4	1.53313e+06	-1.01437	-0.546021	
1.70769	113890.0	274376.0	-7.14826e-05	-0.00216675	905.867	1596.82	-0.00184961	0.00705147	46464.5	227823.0	0.002073	0.0762939	50504.5	-42908.8	0.00250189	-0.00390625	8088.69	-414.222	0.00972164	0.00341797	-755259.0	-3472.63	-0.00675511	1.34038	
1.75641	127181.0	291806.0	0.00608124	-0.00244141	-799.356	-1895.93	-0.00198183	-0.000454903	57848.1	246785.0	-0.000139	0.0456543	24120.6	89657.2	-0.00370087	-0.00219727	93.7242	12958.1	-0.00611599	-0.000244141	15824.3	-1.19983e+06	-0.176416	-0.113953	
1.80513	93730.6	262214.0	-0.00329668	0.00106812	435.129	1892.63	0.000656166	0.00873184	29922.5	226900.0	0.0102789	0.0681152	-46289.4	27804.9	0.00081149	-0.000617981	-5874.6	-1211.41	0.00118342	-0.00128174	537260.0	149466.0	-0.0352998	1.40216	
1.85385	100478.0	299130.0	0.00115232	0.0012207	-80.4575	-1966.09	5.35007e-05	0.00136662	35828.4	264277.0	0.000131694	0.0314941	-9783.46	-90488.0	0.00272442	-0.00622559	1329.0	-9824.26	-0.00390761	0.00244141	-142031.0	883367.0	0.163976	-0.136261	
1.90256	85656.3	246987.0	0.0	-0.000579834	-256.779	1604.51	-0.00186769	-0.00449753	22473.0	222930.0	0.0070577	-0.00671387	43446.2	-4408.76	0.000449127	0.00396729	4040.32	3257.69	-0.000352885	0.000106812	-356428.0	-327170.0	-0.245215	0.0218658	
1.95128	73075.9	285906.0	0.00730377	-0.0144653	593.032	-1093.06	0.000247304	0.00988293	10863.6	263625.0	0.00200189	0.0227051	-9099.08	83915.0	-0.000187677	-0.0124512	-2413.08	5935.1	-0.00111042	-0.00439453	229131.0	-502132.0	0.0447923	-0.203453	
2.0	82717.0	246606.0	0.000274658	-0.003479	-602.807	414.644	0.0024147	0.0054903	19170.5	232419.0	0.0151367	0.059082	-37800.0	-31676.3	0.00378418	-0.00268555	-1909.35	-4534.4	-0.00404358	0.000457764	150179.0	414369.0	-0.297432	0.306488	
Zone t="Motion of body	1	in DoF	2",I=	40,F=POINT
0.1	-0.00213623	-7.45058e-09	187459.0	6.19182	0.000959635	3.6438e-07	-84490.8	-4.12974	-0.000298619	-1.04483e-08	0.00244141	2.29478e-05	-1.2666e-06	-1.11759e-08	367.56	10.9117	7.30157e-06	-7.41333e-07	-479.797	-14.0514	0.00225067	2.09808e-05	36756.3	1091.17	
0.148718	-0.00189814	-1.49012e-07	188062.0	20.7993	0.0013691	-6.6543e-07	-85025.4	-13.877	-0.000494575	-1.70199e-07	-0.0295494	-6.1214e-05	-9.61896e-06	4.76837e-07	360.123	33.776	-1.69334e-05	1.93715e-07	-465.711	-43.4295	-0.000320632	-0.000125885	36008.4	3377.68	
0.197436	0.0010047	5.96046e-08	188594.0	50.0702	-0.000399707	2.28733e-06	-85205.4	-33.3852	3.86424e-05	-2.18628e-07	0.00185483	6.02007e-05	-4.30198e-06	3.57628e-07	309.162	72.281	3.62272e-06	-1.2219e-06	-398.311	-92.7577	-0.00442455	2.28882e-05	30915.5	7228.24	
0.246154	-0.0022316	1.13249e-06	189727.0	100.786	-0.00199527	4.54113e-06	-86334.2	-67.2798	-0.0014979	-8.2422e-08	-0.0116539	9.94205e-05	2.90573e-06	-1.3113e-06	195.274	123.378	-8.11182e-06	3.30806e-06	-251.069	-157.798	-0.000542402	0.000274658	19527.4	12338.0	
0.294872	0.00326007	5.96046e-07	190602.0	181.169	3.55762e-05	-4.71994e-06	-86779.7	-120.885	0.000289461	-8.95001e-07	0.0	4.1008e-05	7.58016e-07	3.57628e-06	13.394	177.158	-6.82214e-07	6.25849e-06	-18.3573	-225.926	3.71933e-05	0.00128937	1338.95	17716.4	
0.34359	0.000977018	-2.38419e-06	192229.0	303.031	-0.00166953	5.25266e-06	-88280.1	-202.442	-9.64528e-05	-7.07805e-08	0.0117242	0.000117302	4.07669e-06	-1.07288e-06	-226.056	216.515	-1.37046e-05	-3.57628e-06	285.203	-274.839	0.000299767	0.0001297	-22605.6	21651.9	
0.392308	-0.00217812	2.38419e-06	193748.0	480.661	-0.000596794	-1.56611e-05	-89491.8	-321.363	-0.000813148	-1.88872e-06	0.00373392	5.14984e-05	-2.23342e-05	1.54972e-06	-495.642	217.735	1.89917e-05	2.02656e-06	623.137	-275.057	-0.00150718	-0.000450134	-49561.8	21773.1	
0.441026	-0.000553575	-7.62939e-06	195450.0	735.401	0.00368041	2.01464e-05	-90569.7	-491.371	0.000611419	-5.49853e-06	0.0224198	0.000429153	-8.3793e-06	2.02656e-06	-750.073	154.306	-1.40556e-05	-1.60933e-06	937.225	-194.192	-0.00980865	-0.000244141	-75004.7	15430.5	
0.489744	0.00112164	-4.76837e-06	197744.0	1093.53	-0.00145852	-2.26796e-05	-92479.6	-731.923	0.00159094	-3.00258e-06	0.146063	5.34058e-05	-2.72621e-05	-6.49691e-06	-919.827	3.97901	-3.04265e-05	2.68221e-07	1141.56	-6.6533	-0.0056082	1.90735e-05	-91981.0	398.08	
0.538462	0.00260707	2.09808e-05	200305.0	1598.92	-0.0014098	-1.7643e-05	-94542.8	-1070.98	3.188e-05	8.44151e-06	-0.0145089	-0.00118256	-1.68255e-05	-4.76837e-06	-929.908	-238.163	-1.74897e-05	9.53674e-07	1144.71	290.632	-0.0019553	-0.00142288	-92989.2	-23815.0	
0.587179	-0.000519732	-8.58307e-06	203150.0	2295.68	-0.00103297	4.24087e-05	-96837.0	-1540.04	0.000113285	4.23193e-06	-0.0623678	0.00227356	1.04555e-05	-2.98023e-06	-692.597	-540.295	-1.0354e-05	-1.28746e-05	847.268	655.913	0.00187103	-0.00495911	-69258.0	-54028.3	
0.635897	0.000575896	1.52588e-05	206087.0	3258.25	-0.00211912	-0.000140131	-98856.2	-2187.6	7.94857e-05	1.52439e-05	0.0468396	-0.000831604	1.66376e-05	3.09944e-06	-169.498	-815.263	2.81199e-06	1.83582e-05	210.296	981.266	-0.000395929	0.00390625	-16948.1	-81523.5	
0.684615	0.00160474	6.10352e-05	209805.0	4605.32	-0.00160892	0.000122905	-101763.0	-3095.13	0.000379595	-5.96046e-06	-0.043863	0.00622559	-3.65664e-06	4.29153e-06	595.444	-912.897	1.48007e-06	-6.19888e-06	-700.971	1087.18	-0.00153231	0.00195312	59542.3	-91285.5	
0.733333	0.00249689	3.43323e-05	214203.0	6446.5	-0.00377785	9.53674e-05	-105438.0	-4347.88	-0.000994856	3.08156e-05	-0.0426136	-0.001297	-1.78814e-05	-2.11596e-05	1399.05	-639.814	-3.02358e-05	-7.15256e-06	-1638.28	756.888	-0.00249689	0.00143433	139898.0	-63976.4	
0.782051	-0.00437052	-3.8147e-05	218657.0	8979.41	-0.00135603	0.000303984	-109023.0	-6075.39	-0.000161577	-1.77622e-05	-0.0415199	-0.00012207	1.12799e-05	-5.19753e-05	1861.47	121.454	-1.52432e-05	4.17233e-06	-2157.64	-132.676	0.012097	0.000335693	186132.0	12150.1	
0.830769	0.00477544	0.000236511	223542.0	12500.8	0.0029548	-0.000101566	-112709.0	-8466.92	-0.000568805	-2.6226e-05	0.0916884	0.00610352	5.59621e-06	-6.10352e-05	1516.68	1239.5	1.20534e-05	4.29153e-06	-1738.35	-1406.68	0.00719989	0.000823975	151646.0	123947.0	
0.879487	6.93986e-05	7.62939e-06	228839.0	17216.6	0.0010952	-5.72205e-06	-116778.0	-11700.6	6.39768e-05	-6.4373e-06	-0.00333113	-0.0119629	5.96394e-05	1.90735e-06	100.868	2115.71	-3.25306e-06	-1.09673e-05	-127.035	-2378.86	0.00097158	0.00183105	10064.0	211552.0	
0.928205	0.00118361	0.000228882	234292.0	23480.3	-0.000910311	0.000602722	-121278.0	-16045.4	-0.000587695	2.99215e-05	-0.116783	0.00402832	-9.04147e-05	-7.79629e-05	-1888.18	1801.06	-1.41273e-05	3.43323e-05	2080.21	-2004.39	-0.00557283	-0.0133057	-188821.0	180066.0	
0.976923	0.000624769	4.57764e-05	240066.0	31929.0	0.00287394	0.00121927	-126166.0	-21919.3	-0.00207199	-0.000353932	-0.0464828	0.0524292	1.12263e-05	2.95639e-05	-3030.82	-243.752	-1.4643e-06	-1.16825e-05	3298.45	249.522	0.0179934	0.000793457	-303040.0	-24423.0	
1.02564	-0.00214233	-0.00115967	245367.0	42841.2	-0.00612574	-7.82013e-05	-131138.0	-29605.6	0.000108325	-4.43459e-05	0.194238	-0.0705566	0.000129752	7.05719e-05	-1735.36	-2974.95	2.7895e-06	3.62396e-05	1873.53	3180.63	-0.0105927	0.00299072	-173448.0	-297496.0	
1.07436	0.00113622	3.05176e-05	249452.0	56335.9	-0.00162621	0.000290871	-134775.0	-39187.0	0.000268076	-7.4625e-05	0.0854434	-0.0303955	2.663e-06	0.000173569	1695.88	-3515.23	7.18457e-05	1.71661e-05	-1778.62	3719.5	0.00120723	0.00164795	169663.0	-351414.0	
1.12308	-0.00249993	-0.0012207	251955.0	72942.0	-0.000212291	0.00215054	-137141.0	-51013.4	0.0012695	-0.000590324	0.00260863	0.0632324	2.29274e-05	-0.000107288	3957.16	-31.2702	-9.17095e-05	-3.33786e-06	-4105.82	45.8869	0.00842369	-0.00012207	395652.0	-2938.84	
1.17179	-0.00281269	-0.000183105	252401.0	92660.0	-0.00105476	0.00136852	-138695.0	-65302.9	-0.00157888	0.000228882	-0.053337	-0.151367	0.000167858	6.86646e-05	1730.65	4454.6	-3.74375e-05	-6.29425e-05	-1772.99	-4543.31	0.00562538	0.00918579	172822.0	445495.0	
1.22051	-0.00390061	0.000610352	251007.0	114742.0	2.81294e-05	0.0013752	-139392.0	-81839.4	-0.00130177	-0.00018549	0.12922	-0.00952148	-6.32911e-05	3.54946e-05	-3040.49	3732.94	3.49176e-06	-1.90735e-06	3062.2	-3758.96	0.0145945	0.017334	-304224.0	372952.0	
1.26923	-0.00317383	0.00012207	246298.0	138527.0	0.00509285	0.0023632	-137563.0	-99921.2	0.000580817	-0.000664234	-0.00346236	0.191895	-4.47071e-05	0.000390053	-3864.71	-2532.27	-5.03424e-05	3.14713e-05	3830.39	2522.08	-0.00894442	-0.0116882	-386212.0	-253674.0	
1.31795	-0.00277864	0.00231934	238469.0	163378.0	-0.00473238	-0.000185013	-133164.0	-119042.0	-0.00128657	0.00179052	0.105588	-0.542969	-9.33451e-05	1.19209e-05	949.481	-5533.25	2.49644e-05	-3.8147e-06	-941.872	5387.42	0.00796544	0.0240479	95476.4	-553075.0	
1.36667	-0.00107184	0.000610352	227846.0	187953.0	-0.00179337	-0.000366211	-127148.0	-138809.0	0.000192247	-0.00229454	-0.0457317	0.480469	2.79124e-06	-4.19617e-05	4180.05	86.7253	2.02365e-05	1.71661e-05	-4020.7	-117.922	-0.00214367	0.000671387	417943.0	9623.96	
1.41538	-0.000689963	0.00012207	215315.0	210934.0	-0.00171413	0.00200272	-119404.0	-158093.0	-0.000920399	0.00124598	-0.00310483	-0.557617	-3.63847e-05	-8.7738e-05	593.076	5587.53	-3.16682e-05	-7.62939e-06	-529.792	-5312.85	0.0018974	0.00311279	58450.2	558892.0	
1.4641	-0.00158413	0.000854492	200740.0	231107.0	0.00168835	0.00494576	-109932.0	-175843.0	0.000754939	0.000403404	0.237453	0.392578	-5.73207e-05	-0.000177383	-3611.07	1474.52	-9.65353e-06	-3.8147e-06	3393.0	-1326.05	0.00160791	-0.00500488	-361384.0	145972.0	
1.51282	-0.00161381	0.00012207	185255.0	248218.0	0.00455902	-0.0045166	-99172.5	-191518.0	-0.000459873	0.000442505	-0.349874	-0.597656	-5.29532e-05	-8.10623e-05	-1204.75	-4931.36	-7.56474e-06	4.02927e-05	1073.07	4563.85	-0.00266279	-0.0108795	-119318.0	-493812.0	
1.56154	-0.00187615	-0.000732422	169400.0	261496.0	-0.00173324	0.000576019	-88402.4	-205516.0	1.0077e-05	0.000511169	0.184801	0.49707	-7.48141e-05	0.000171661	2942.26	-1925.11	3.55749e-05	4.1008e-05	-2698.71	1697.31	0.00226702	-0.00177002	294823.0	-190466.0	
1.61026	0.000454848	-0.00415039	154135.0	271243.0	-4.32342e-05	-0.000303268	-77545.9	-217174.0	0.000761337	-0.00237751	-0.507307	-0.630859	3.5535e-06	8.58307e-05	1130.82	4301.7	-5.33025e-06	-1.23978e-05	-984.987	-3909.86	-0.000530656	3.05176e-05	111596.0	431310.0	
1.65897	0.000993354	-0.00512695	139652.0	277400.0	-0.000210973	0.00325012	-66543.2	-225973.0	0.000874502	-0.00239086	0.547449	0.930664	5.77732e-05	0.000143051	-2442.46	1540.35	-4.19646e-05	-1.33514e-05	2193.24	-1320.11	-0.000331118	0.00012207	-245004.0	151215.0	
1.70769	-0.0012152	-0.00170898	126261.0	280318.0	-3.68582e-05	-0.00125885	-56285.8	-232805.0	0.00123615	0.00207806	-0.815617	-1.49512	0.000157485	2.40207e-05	-655.471	-3824.77	9.21456e-06	1.90735e-05	552.51	3396.46	0.00100076	0.00213623	-63600.4	-383686.0	
1.75641	0.00119887	-0.00463867	114267.0	280670.0	4.09941e-05	0.000957489	-46665.9	-237492.0	4.49306e-05	0.00216246	0.96299	2.45508	-6.80067e-05	-5.24521e-05	2041.18	-591.44	6.51561e-06	-2.24113e-05	-1791.46	485.416	0.00100775	-0.000366211	204674.0	-55266.0	
1.80513	0.000473369	-0.000488281	103514.0	278708.0	7.66055e-05	3.43323e-05	-37919.4	-241095.0	0.000525276	-0.000588894	-0.432862	-4.18457	4.09443e-05	0.000240803	4.50859	3275.48	-1.8491e-06	-9.05991e-06	9.32253	-2863.49	-0.000676242	0.0050354	-2011.51	327990.0	
1.85385	0.000238696	-0.00170898	94289.0	275285.0	0.000474047	0.00348854	-30084.2	-243495.0	2.19919e-05	-0.000254631	-0.813672	5.21973	-7.45924e-05	0.000287533	-1542.38	-590.365	5.40152e-06	-2.86102e-06	1345.17	529.96	0.000205772	-0.000671387	-154006.0	-63994.5	
1.90256	-5.61408e-05	-0.000244141	86250.2	270671.0	-0.00124462	-0.00079155	-22624.5	-244039.0	-0.00028697	-0.00131798	2.72621	-5.01855	7.09279e-05	0.000104904	588.025	-2315.23	1.25314e-06	8.46386e-06	-514.354	2014.46	0.000753891	0.00153351	61547.3	-229842.0	
1.95128	-7.81988e-05	0.00366211	79204.4	264668.0	-0.000445244	6.58035e-05	-16085.5	-244329.0	-0.000127928	0.00065279	-4.46033	1.12598	1.61285e-05	-4.69387e-06	847.754	1490.68	5.08598e-06	6.67572e-06	-742.712	-1299.89	0.000201362	-0.0	83090.9	154115.0	
2.0	-0.00183105	-0.000732422	73274.5	258385.0	0.000248909	-0.000596046	-10026.5	-243379.0	0.000147223	0.00444126	4.25775	5.34375	9.77516e-05	-6.19888e-06	-828.882	940.902	-2.38419e-07	1.78814e-07	723.37	-835.477	0.000167847	-0.000209808	-85008.7	88993.6	
Zone t="Motion of body	1	in DoF	3",I=	40,F=POINT
0.1	-2.39067	0.265425	0.0214386	0.00041008	172021.0	3263.65	0.0224686	-0.000691414	-1.63465	0.174676	-0.00793457	4.57764e-05	4384.79	129.758	-0.000801086	0.000102997	11244.6	5706.35	-0.00621796	0.000305176	-1.11875e+06	-570469.0	0.0789452	-0.0196991	
0.148718	-6.32784	0.56163	0.0252914	-0.00038147	164086.0	4854.79	-0.0540329	-0.003829	-4.15942	0.379436	0.00123123	-6.10352e-05	4293.99	398.417	-0.000192379	-0.0001297	-9012.39	7099.41	0.00183401	0.00175476	906782.0	-709429.0	0.055123	-0.0198212	
0.197436	-13.461	-0.232258	0.032305	0.000408173	158037.0	6447.69	-0.0608038	-0.00108433	-8.99348	-0.153818	-0.00185483	0.000320435	3651.23	844.629	-0.00315902	-0.000167847	-22489.4	7089.71	0.0170026	0.00312805	2.25362e+06	-707889.0	0.184711	0.10408	
0.246154	-16.2336	-3.6283	0.0044632	0.00231171	153079.0	8026.72	-0.0201464	0.0048418	-10.838	-2.41968	-0.0022316	0.000183105	2300.26	1425.14	-0.00038743	0.000675201	-30432.3	5549.0	-0.0163651	0.000778198	3.04617e+06	-553080.0	0.487046	-0.0354691	
0.294872	-4.66271	-9.54073	0.00696	0.000778198	148716.0	9579.68	-0.00516178	-0.00417137	-3.28437	-6.3859	-0.00382929	0.000549316	211.648	2022.47	-0.00124193	0.00030899	-33183.9	2599.98	-0.00724461	-0.000740051	3.31866e+06	-257424.0	0.0805186	0.0463467	
0.34359	25.9073	-13.1012	-0.00606195	0.00524139	145635.0	11112.0	-0.0780615	0.00118828	17.2225	-8.76556	0.00284223	0.000183105	-2462.38	2442.96	0.000532919	4.18425e-05	-31344.5	-1382.4	-0.0106584	0.000154972	3.13131e+06	141341.0	-0.209082	0.049324	
0.392308	61.7811	-5.04243	-0.00278099	-0.000434875	142249.0	12580.3	0.0290351	0.00148582	41.2904	-3.37502	0.00202254	3.05176e-05	-5353.27	2427.58	-0.000875136	0.000627518	-25228.3	-5746.53	0.0135354	0.000152588	2.51605e+06	577717.0	-0.331113	-0.0394897	
0.441026	69.9317	21.069	-0.00245649	-0.000816345	140040.0	14133.2	0.00208455	-0.00242043	46.7708	14.0445	0.00290627	-0.000366211	-7972.46	1729.98	0.00234404	0.000816345	-16155.4	-9685.61	-0.00826902	-0.000305176	1.60556e+06	970722.0	-0.241186	-0.091217	
0.489744	13.1687	54.1581	0.00018694	-0.00551605	137083.0	15660.3	0.00934701	-0.0069046	8.69188	36.2343	0.000249254	0.00183105	-9612.07	161.668	0.000163573	0.00115967	-5230.03	-12163.5	-0.00196287	0.00341797	511083.0	1.21654e+06	0.0144995	0.0761719	
0.538462	-101.2	56.1284	-0.0182212	-0.00050354	134867.0	17283.4	0.0046899	-0.00561523	-67.7449	37.5793	0.000906808	-0.000671387	-9542.31	-2237.84	0.000978759	0.000541687	5607.43	-12421.9	0.00196195	0.00741577	-572516.0	1.23942e+06	0.198393	-0.100311	
0.587179	-185.061	-16.0437	-0.00730223	0.00709534	132088.0	18879.2	-0.00826373	-0.003582	-124.045	-10.6641	0.00301444	-0.000427246	-7161.14	-5132.36	0.000727624	0.000518799	14560.6	-9928.56	-0.00332628	-0.00274658	-1.46478e+06	986588.0	0.184037	0.179291	
0.635897	-96.7202	-139.455	0.00806255	-0.00315857	129161.0	20082.3	0.0214161	-0.00190735	-64.9754	-93.5964	-0.000575896	-0.00115967	-2209.3	-7619.6	-0.00211162	-0.000190735	19391.6	-4687.88	-0.00369533	0.00230408	-1.94181e+06	459566.0	-0.196141	-0.0456753	
0.684615	188.237	-165.009	0.000378898	-0.000778198	127243.0	21200.4	-0.00322063	0.000148773	126.259	-110.757	-0.00124813	-0.000244141	4627.79	-8465.46	0.000289746	0.000192642	19209.8	2230.04	-0.0028083	-0.00154877	-1.91541e+06	-233130.0	-0.208572	-0.0709686	
0.733333	375.0	69.7222	0.0108407	0.00466919	125109.0	22171.0	-0.0256036	-0.00102997	252.489	46.8399	0.0	0.00189209	11477.9	-6161.59	0.00126925	0.000595093	13471.7	8920.98	0.00449441	0.00270081	-1.33357e+06	-899376.0	0.0971915	-0.0231628	
0.782051	39.002	378.994	-0.021716	-0.00416565	123233.0	23305.4	-0.0678698	0.00396729	26.6107	256.178	-0.000936539	-0.000244141	15299.6	-106.069	-0.00121945	-5.34058e-05	3869.97	12743.7	0.000507292	0.00387573	-369116.0	-1.27447e+06	0.107039	0.150146	
0.830769	-580.656	155.884	-0.00174487	-0.00726318	121230.0	24896.1	0.00596011	-0.0178299	-392.664	105.771	-7.34682e-05	-0.00109863	12992.7	8415.54	0.001515	0.00050354	-6243.53	11951.8	5.51012e-05	0.000549316	639346.0	-1.18543e+06	0.0963169	-0.42099	
0.879487	-320.162	-605.402	0.00851868	0.00595093	117966.0	25455.9	0.0496287	0.00670624	-217.242	-410.425	0.00111038	-0.000976562	3155.39	15294.6	-0.000346993	0.000488281	-12971.5	5770.37	-0.00593358	-0.00164795	1.30072e+06	-559585.0	-0.0239425	0.127518	
0.928205	837.638	-364.9	0.00659205	-0.000183105	115973.0	24704.4	0.0222256	0.000282288	571.323	-249.207	-0.00170966	-0.000610352	-10745.6	14204.9	-0.000263024	0.000423431	-12488.8	-3317.36	0.00460293	0.000144958	1.23677e+06	347691.0	0.122405	-0.00634766	
0.976923	356.212	1021.25	0.0104258	-0.011261	115548.0	25073.9	0.0270447	-0.00284576	244.349	698.838	0.000374862	0.00292969	-19326.0	2149.13	0.00160878	-0.000671387	-5521.88	-10084.2	0.000249908	0.00268555	530724.0	1.01077e+06	-0.0357056	0.242828	
1.02564	-1299.98	135.836	-0.00365238	0.00390625	113118.0	26184.9	-0.0278727	-0.00681686	-895.494	93.9417	-0.000416565	0.000488281	-14328.0	-14743.2	-0.000485373	-0.000839233	3753.06	-10300.3	0.0011158	0.00265503	-391045.0	1.01378e+06	-0.17338	0.358257	
1.07436	406.224	-1562.9	0.00362169	0.0072937	110489.0	24492.5	0.00854292	0.00954819	281.158	-1084.5	0.000198838	0.000610352	4211.74	-22085.8	-0.00359328	0.000778198	9019.65	-2983.73	-0.000624918	0.00012207	-897364.0	274440.0	0.0957687	-0.0644073	
1.12308	1180.65	1267.09	-0.00247276	-0.00473022	110550.0	22919.5	-0.0122008	-0.00288391	824.359	883.201	-0.000434771	0.00244141	19520.7	-7436.83	0.000149453	0.00186157	6395.72	5656.74	0.00309774	-0.00289917	-618633.0	-573621.0	0.0700661	-0.117889	
1.17179	-1700.66	467.015	0.00382025	-0.0221863	109253.0	23929.0	0.0140374	0.00102997	-1195.14	329.421	-0.000449249	-0.0020752	15005.4	16176.9	-0.000885477	0.00291443	-949.274	8562.24	0.000403673	0.00164795	111023.0	-838860.0	0.0337263	0.141581	
1.22051	876.809	-1950.82	-0.00174402	-0.00283813	107488.0	21297.3	-0.0255727	0.0016861	622.612	-1385.18	0.000612595	-0.00549316	-6837.29	23092.3	0.00336302	-0.000549316	-5800.83	2700.09	0.0032255	0.000518799	572885.0	-245760.0	-0.233818	-0.0532532	
1.26923	464.777	2107.41	-0.00347739	0.00439453	107922.0	19154.5	-0.040869	0.00110245	334.256	1513.18	-0.000132243	0.00109863	-18449.8	680.23	0.000528971	0.000572205	-3802.17	-4425.88	-0.00271699	-0.0045929	360968.0	443299.0	0.176328	-0.116264	
1.31795	-1379.41	-1210.12	0.000202609	0.0117188	107830.0	18861.4	-0.00666296	0.00423813	-1001.26	-876.859	0.000740972	-0.00183105	-6417.84	-21669.5	0.000428012	-0.000106812	1608.38	-5599.69	0.00091319	-0.00323486	-167564.0	537323.0	-0.061709	-0.271545	
1.36667	1464.59	-23.039	7.81548e-05	-0.00973511	106852.0	16664.3	-0.0401939	0.00916672	1076.17	-16.8431	-0.000446599	-0.000610352	13013.8	-12587.7	0.00276891	-0.000225067	3855.72	317.469	0.000848538	0.000419617	-372042.0	-44877.9	0.0722373	0.103485	
1.41538	-1024.72	1106.84	-0.000145539	0.0191956	107480.0	14861.4	-0.0436132	-0.00722504	-763.573	823.227	-0.000517472	-0.00146484	11159.3	12804.7	-0.000603717	0.000793457	1005.85	4169.95	-0.000172491	0.00134277	-89135.1	-403928.0	-0.0593745	0.137493	
1.4641	421.775	-1653.29	0.00105262	-0.0010376	107444.0	13177.2	0.0188533	0.0141659	319.167	-1249.94	0.000125063	0.00109863	-6379.28	16819.5	-0.00140696	-1.52588e-05	-2229.8	1921.02	-0.000250127	0.000244141	216472.0	-174808.0	0.033629	0.0130539	
1.51282	205.863	1713.62	0.000211813	0.000915527	108376.0	11752.0	-0.00131122	0.0125408	158.18	1314.88	-0.000242072	0.00756836	-10495.0	-5474.37	0.000221899	-0.00115204	-1390.11	-2387.81	0.000171467	0.00122833	127998.0	233040.0	0.00194666	-0.0853624	
1.56154	-692.937	-1686.77	0.000195433	0.00338745	108314.0	10805.0	0.0315673	-0.00859451	-539.959	-1316.83	0.00011726	0.00366211	2011.64	-15508.8	0.000815932	-0.000228882	1236.45	-2173.42	-4.88582e-06	0.00137329	-121548.0	201137.0	0.194076	-0.0625839	
1.61026	916.592	1568.09	0.00056856	-0.00457764	108910.0	8498.16	-0.00775611	-0.00484467	725.672	1245.94	0.0	0.00012207	8340.73	1888.54	-0.00014214	-0.00025177	1257.38	1187.15	0.00099498	-0.000225067	-117205.0	-116900.0	0.0268834	-0.0716038	
1.65897	-1127.97	-1614.81	0.000515073	0.00744629	109598.0	7715.41	-0.00720182	-0.00265694	-909.27	-1305.82	-7.35818e-05	-0.00244141	-333.832	12665.0	-0.000653038	3.05176e-05	-481.204	1728.7	-0.000840442	-1.52588e-05	47834.2	-159785.0	0.265979	0.010025	
1.70769	971.177	1749.19	-5.3612e-05	-0.000793457	110153.0	6276.95	-0.00492337	0.00525188	798.042	1441.24	7.14826e-05	0.000488281	-6143.02	-669.658	4.0209e-05	0.000427246	-820.393	-711.497	0.000567393	0.00119209	75526.0	70377.7	-0.00615867	-0.115918	
1.75641	-874.824	-2035.04	-0.000304062	-0.00143433	110892.0	6181.46	-0.0507523	-0.0145111	-732.542	-1707.09	0.0002085	0.000488281	169.414	-9923.81	-0.000549483	-0.000434875	432.036	-1193.91	0.000221531	0.000427246	-42727.2	108390.0	-0.0652805	0.00291061	
1.80513	451.322	2078.55	-0.000735413	0.00332642	111173.0	4608.54	-3.38121e-05	0.000232697	384.763	1779.42	-0.000202873	0.000854492	4446.51	890.988	0.000185966	-0.000141144	507.876	506.474	-2.53591e-05	-0.00189781	-45965.3	-49428.5	0.00124471	-0.0755959	