VARIABLES="X" "Y" "Z" "NX" "NY" "NZ" "A"
ZONE N=	540	, E=	300	, F=FEPOINT,ET=QUADRILATERAL
4.8296289444	1.29409503937	-10.0	0.	0.	0.	0.
4.8296289444	1.29409503937	-9.0	0.	0.	0.	0.
4.8296289444	1.29409503937	-8.0	0.	0.	0.	0.
4.8296289444	1.29409503937	-7.0	0.	0.	0.	0.
4.8296289444	1.29409503937	-6.0	0.	0.	0.	0.
4.8296289444	1.29409503937	-5.0	0.	0.	0.	0.
4.8296289444	1.29409503937	-4.0	0.	0.	0.	0.
4.8296289444	1.29409503937	-3.0	0.	0.	0.	0.
4.8296289444	1.29409503937	-2.0	0.	0.	0.	0.
4.8296289444	1.29409503937	-1.0	0.	0.	0.	0.
4.8296289444	1.29409503937	0.0	0.	0.	0.	0.
4.9148144722	0.647047519684	-10.0	0.	0.	0.	0.
4.9148144722	0.647047519684	-9.0	0.	0.	0.	0.
4.9148144722	0.647047519684	-8.0	0.	0.	0.	0.
4.9148144722	0.647047519684	-7.0	0.	0.	0.	0.
4.9148144722	0.647047519684	-6.0	0.	0.	0.	0.
4.9148144722	0.647047519684	-5.0	0.	0.	0.	0.
4.9148144722	0.647047519684	-4.0	0.	0.	0.	0.
4.9148144722	0.647047519684	-3.0	0.	0.	0.	0.
4.9148144722	0.647047519684	-2.0	0.	0.	0.	0.
4.9148144722	0.647047519684	-1.0	0.	0.	0.	0.
4.9148144722	0.647047519684	0.0	0.	0.	0.	0.
5.0	0.0	-10.0	0.	0.	0.	0.
5.0	0.0	-9.0	0.	0.	0.	0.
5.0	0.0	-8.0	0.	0.	0.	0.
5.0	0.0	-7.0	0.	0.	0.	0.
5.0	0.0	-6.0	0.	0.	0.	0.
5.0	0.0	-5.0	0.	0.	0.	0.
5.0	0.0	-4.0	0.	0.	0.	0.
5.0	0.0	-3.0	0.	0.	0.	0.
5.0	0.0	-2.0	0.	0.	0.	0.
5.0	0.0	-1.0	0.	0.	0.	0.
5.0	0.0	0.0	0.	0.	0.	0.
4.33012676239	2.5	-10.0	0.	0.	0.	0.
4.33012676239	2.5	-9.0	0.	0.	0.	0.
4.33012676239	2.5	-8.0	0.	0.	0.	0.
4.33012676239	2.5	-7.0	0.	0.	0.	0.
4.33012676239	2.5	-6.0	0.	0.	0.	0.
4.33012676239	2.5	-5.0	0.	0.	0.	0.
4.33012676239	2.5	-4.0	0.	0.	0.	0.
4.33012676239	2.5	-3.0	0.	0.	0.	0.
4.33012676239	2.5	-2.0	0.	0.	0.	0.
4.33012676239	2.5	-1.0	0.	0.	0.	0.
4.33012676239	2.5	0.0	0.	0.	0.	0.
4.57987785339	1.89704751968	-10.0	0.	0.	0.	0.
4.57987785339	1.89704751968	-9.0	0.	0.	0.	0.
4.57987785339	1.89704751968	-8.0	0.	0.	0.	0.
4.57987785339	1.89704751968	-7.0	0.	0.	0.	0.
4.57987785339	1.89704751968	-6.0	0.	0.	0.	0.
4.57987785339	1.89704751968	-5.0	0.	0.	0.	0.
4.57987785339	1.89704751968	-4.0	0.	0.	0.	0.
4.57987785339	1.89704751968	-3.0	0.	0.	0.	0.
4.57987785339	1.89704751968	-2.0	0.	0.	0.	0.
4.57987785339	1.89704751968	-1.0	0.	0.	0.	0.
4.57987785339	1.89704751968	0.0	0.	0.	0.	0.
4.8296289444	1.29409503937	-10.0	0.	0.	0.	0.
4.8296289444	1.29409503937	-9.0	0.	0.	0.	0.
4.8296289444	1.29409503937	-8.0	0.	0.	0.	0.
4.8296289444	1.29409503937	-7.0	0.	0.	0.	0.
4.8296289444	1.29409503937	-6.0	0.	0.	0.	0.
4.8296289444	1.29409503937	-5.0	0.	0.	0.	0.
4.8296289444	1.29409503937	-4.0	0.	0.	0.	0.
4.8296289444	1.29409503937	-3.0	0.	0.	0.	0.
4.8296289444	1.29409503937	-2.0	0.	0.	0.	0.
4.8296289444	1.29409503937	-1.0	0.	0.	0.	0.
4.8296289444	1.29409503937	0.0	0.	0.	0.	0.
3.53553390503	3.53553390503	-10.0	0.	0.	0.	0.
3.53553390503	3.53553390503	-9.0	0.	0.	0.	0.
3.53553390503	3.53553390503	-8.0	0.	0.	0.	0.
3.53553390503	3.53553390503	-7.0	0.	0.	0.	0.
3.53553390503	3.53553390503	-6.0	0.	0.	0.	0.
3.53553390503	3.53553390503	-5.0	0.	0.	0.	0.
3.53553390503	3.53553390503	-4.0	0.	0.	0.	0.
3.53553390503	3.53553390503	-3.0	0.	0.	0.	0.
3.53553390503	3.53553390503	-2.0	0.	0.	0.	0.
3.53553390503	3.53553390503	-1.0	0.	0.	0.	0.
3.53553390503	3.53553390503	0.0	0.	0.	0.	0.
3.93283033371	3.01776695251	-10.0	0.	0.	0.	0.
3.93283033371	3.01776695251	-9.0	0.	0.	0.	0.
3.93283033371	3.01776695251	-8.0	0.	0.	0.	0.
3.93283033371	3.01776695251	-7.0	0.	0.	0.	0.
3.93283033371	3.01776695251	-6.0	0.	0.	0.	0.
3.93283033371	3.01776695251	-5.0	0.	0.	0.	0.
3.93283033371	3.01776695251	-4.0	0.	0.	0.	0.
3.93283033371	3.01776695251	-3.0	0.	0.	0.	0.
3.93283033371	3.01776695251	-2.0	0.	0.	0.	0.
3.93283033371	3.01776695251	-1.0	0.	0.	0.	0.
3.93283033371	3.01776695251	0.0	0.	0.	0.	0.
4.33012676239	2.5	-10.0	0.	0.	0.	0.
4.33012676239	2.5	-9.0	0.	0.	0.	0.
4.33012676239	2.5	-8.0	0.	0.	0.	0.
4.33012676239	2.5	-7.0	0.	0.	0.	0.
4.33012676239	2.5	-6.0	0.	0.	0.	0.
4.33012676239	2.5	-5.0	0.	0.	0.	0.
4.33012676239	2.5	-4.0	0.	0.	0.	0.
4.33012676239	2.5	-3.0	0.	0.	0.	0.
4.33012676239	2.5	-2.0	0.	0.	0.	0.
4.33012676239	2.5	-1.0	0.	0.	0.	0.
4.33012676239	2.5	0.0	0.	0.	0.	0.
2.5	4.33012676239	-10.0	0.	0.	0.	0.
2.5	4.33012676239	-9.0	0.	0.	0.	0.
2.5	4.33012676239	-8.0	0.	0.	0.	0.
2.5	4.33012676239	-7.0	0.	0.	0.	0.
2.5	4.33012676239	-6.0	0.	0.	0.	0.
2.5	4.33012676239	-5.0	0.	0.	0.	0.
2.5	4.33012676239	-4.0	0.	0.	0.	0.
2.5	4.33012676239	-3.0	0.	0.	0.	0.
2.5	4.33012676239	-2.0	0.	0.	0.	0.
2.5	4.33012676239	-1.0	0.	0.	0.	0.
2.5	4.33012676239	0.0	0.	0.	0.	0.
3.01776695251	3.93283033371	-10.0	0.	0.	0.	0.
3.01776695251	3.93283033371	-9.0	0.	0.	0.	0.
3.01776695251	3.93283033371	-8.0	0.	0.	0.	0.
3.01776695251	3.93283033371	-7.0	0.	0.	0.	0.
3.01776695251	3.93283033371	-6.0	0.	0.	0.	0.
3.01776695251	3.93283033371	-5.0	0.	0.	0.	0.
3.01776695251	3.93283033371	-4.0	0.	0.	0.	0.
3.01776695251	3.93283033371	-3.0	0.	0.	0.	0.
3.01776695251	3.93283033371	-2.0	0.	0.	0.	0.
3.01776695251	3.93283033371	-1.0	0.	0.	0.	0.
3.01776695251	3.93283033371	0.0	0.	0.	0.	0.
3.53553390503	3.53553390503	-10.0	0.	0.	0.	0.
3.53553390503	3.53553390503	-9.0	0.	0.	0.	0.
3.53553390503	3.53553390503	-8.0	0.	0.	0.	0.
3.53553390503	3.53553390503	-7.0	0.	0.	0.	0.
3.53553390503	3.53553390503	-6.0	0.	0.	0.	0.
3.53553390503	3.53553390503	-5.0	0.	0.	0.	0.
3.53553390503	3.53553390503	-4.0	0.	0.	0.	0.
3.53553390503	3.53553390503	-3.0	0.	0.	0.	0.
3.53553390503	3.53553390503	-2.0	0.	0.	0.	0.
3.53553390503	3.53553390503	-1.0	0.	0.	0.	0.
3.53553390503	3.53553390503	0.0	0.	0.	0.	0.
1.29409503937	4.8296289444	-10.0	0.	0.	0.	0.
1.29409503937	4.8296289444	-9.0	0.	0.	0.	0.
1.29409503937	4.8296289444	-8.0	0.	0.	0.	0.
1.29409503937	4.8296289444	-7.0	0.	0.	0.	0.
1.29409503937	4.8296289444	-6.0	0.	0.	0.	0.
1.29409503937	4.8296289444	-5.0	0.	0.	0.	0.
1.29409503937	4.8296289444	-4.0	0.	0.	0.	0.
1.29409503937	4.8296289444	-3.0	0.	0.	0.	0.
1.29409503937	4.8296289444	-2.0	0.	0.	0.	0.
1.29409503937	4.8296289444	-1.0	0.	0.	0.	0.
1.29409503937	4.8296289444	0.0	0.	0.	0.	0.
1.89704751968	4.57987785339	-10.0	0.	0.	0.	0.
1.89704751968	4.57987785339	-9.0	0.	0.	0.	0.
1.89704751968	4.57987785339	-8.0	0.	0.	0.	0.
1.89704751968	4.57987785339	-7.0	0.	0.	0.	0.
1.89704751968	4.57987785339	-6.0	0.	0.	0.	0.
1.89704751968	4.57987785339	-5.0	0.	0.	0.	0.
1.89704751968	4.57987785339	-4.0	0.	0.	0.	0.
1.89704751968	4.57987785339	-3.0	0.	0.	0.	0.
1.89704751968	4.57987785339	-2.0	0.	0.	0.	0.
1.89704751968	4.57987785339	-1.0	0.	0.	0.	0.
1.89704751968	4.57987785339	0.0	0.	0.	0.	0.
2.5	4.33012676239	-10.0	0.	0.	0.	0.
2.5	4.33012676239	-9.0	0.	0.	0.	0.
2.5	4.33012676239	-8.0	0.	0.	0.	0.
2.5	4.33012676239	-7.0	0.	0.	0.	0.
2.5	4.33012676239	-6.0	0.	0.	0.	0.
2.5	4.33012676239	-5.0	0.	0.	0.	0.
2.5	4.33012676239	-4.0	0.	0.	0.	0.
2.5	4.33012676239	-3.0	0.	0.	0.	0.
2.5	4.33012676239	-2.0	0.	0.	0.	0.
2.5	4.33012676239	-1.0	0.	0.	0.	0.
2.5	4.33012676239	0.0	0.	0.	0.	0.
0.0	5.0	-10.0	0.	0.	0.	0.
0.0	5.0	-9.0	0.	0.	0.	0.
0.0	5.0	-8.0	0.	0.	0.	0.
0.0	5.0	-7.0	0.	0.	0.	0.
0.0	5.0	-6.0	0.	0.	0.	0.
0.0	5.0	-5.0	0.	0.	0.	0.
0.0	5.0	-4.0	0.	0.	0.	0.
0.0	5.0	-3.0	0.	0.	0.	0.
0.0	5.0	-2.0	0.	0.	0.	0.
0.0	5.0	-1.0	0.	0.	0.	0.
0.0	5.0	0.0	0.	0.	0.	0.
0.647047519684	4.9148144722	-10.0	0.	0.	0.	0.
0.647047519684	4.9148144722	-9.0	0.	0.	0.	0.
0.647047519684	4.9148144722	-8.0	0.	0.	0.	0.
0.647047519684	4.9148144722	-7.0	0.	0.	0.	0.
0.647047519684	4.9148144722	-6.0	0.	0.	0.	0.
0.647047519684	4.9148144722	-5.0	0.	0.	0.	0.
0.647047519684	4.9148144722	-4.0	0.	0.	0.	0.
0.647047519684	4.9148144722	-3.0	0.	0.	0.	0.
0.647047519684	4.9148144722	-2.0	0.	0.	0.	0.
0.647047519684	4.9148144722	-1.0	0.	0.	0.	0.
0.647047519684	4.9148144722	0.0	0.	0.	0.	0.
1.29409503937	4.8296289444	-10.0	0.	0.	0.	0.
1.29409503937	4.8296289444	-9.0	0.	0.	0.	0.
1.29409503937	4.8296289444	-8.0	0.	0.	0.	0.
1.29409503937	4.8296289444	-7.0	0.	0.	0.	0.
1.29409503937	4.8296289444	-6.0	0.	0.	0.	0.
1.29409503937	4.8296289444	-5.0	0.	0.	0.	0.
1.29409503937	4.8296289444	-4.0	0.	0.	0.	0.
1.29409503937	4.8296289444	-3.0	0.	0.	0.	0.
1.29409503937	4.8296289444	-2.0	0.	0.	0.	0.
1.29409503937	4.8296289444	-1.0	0.	0.	0.	0.
1.29409503937	4.8296289444	0.0	0.	0.	0.	0.
-1.29409503937	4.8296289444	-10.0	0.	0.	0.	0.
-1.29409503937	4.8296289444	-9.0	0.	0.	0.	0.
-1.29409503937	4.8296289444	-8.0	0.	0.	0.	0.
-1.29409503937	4.8296289444	-7.0	0.	0.	0.	0.
-1.29409503937	4.8296289444	-6.0	0.	0.	0.	0.
-1.29409503937	4.8296289444	-5.0	0.	0.	0.	0.
-1.29409503937	4.8296289444	-4.0	0.	0.	0.	0.
-1.29409503937	4.8296289444	-3.0	0.	0.	0.	0.
-1.29409503937	4.8296289444	-2.0	0.	0.	0.	0.
-1.29409503937	4.8296289444	-1.0	0.	0.	0.	0.
-1.29409503937	4.8296289444	0.0	0.	0.	0.	0.
-0.647047519684	4.9148144722	-10.0	0.	0.	0.	0.
-0.647047519684	4.9148144722	-9.0	0.	0.	0.	0.
-0.647047519684	4.9148144722	-8.0	0.	0.	0.	0.
-0.647047519684	4.9148144722	-7.0	0.	0.	0.	0.
-0.647047519684	4.9148144722	-6.0	0.	0.	0.	0.
-0.647047519684	4.9148144722	-5.0	0.	0.	0.	0.
-0.647047519684	4.9148144722	-4.0	0.	0.	0.	0.
-0.647047519684	4.9148144722	-3.0	0.	0.	0.	0.
-0.647047519684	4.9148144722	-2.0	0.	0.	0.	0.
-0.647047519684	4.9148144722	-1.0	0.	0.	0.	0.
-0.647047519684	4.9148144722	0.0	0.	0.	0.	0.
0.0	5.0	-10.0	0.	0.	0.	0.
0.0	5.0	-9.0	0.	0.	0.	0.
0.0	5.0	-8.0	0.	0.	0.	0.
0.0	5.0	-7.0	0.	0.	0.	0.
0.0	5.0	-6.0	0.	0.	0.	0.
0.0	5.0	-5.0	0.	0.	0.	0.
0.0	5.0	-4.0	0.	0.	0.	0.
0.0	5.0	-3.0	0.	0.	0.	0.
0.0	5.0	-2.0	0.	0.	0.	0.
0.0	5.0	-1.0	0.	0.	0.	0.
0.0	5.0	0.0	0.	0.	0.	0.
-2.5	4.33012676239	-10.0	0.	0.	0.	0.
-2.5	4.33012676239	-9.0	0.	0.	0.	0.
-2.5	4.33012676239	-8.0	0.	0.	0.	0.
-2.5	4.33012676239	-7.0	0.	0.	0.	0.
-2.5	4.33012676239	-6.0	0.	0.	0.	0.
-2.5	4.33012676239	-5.0	0.	0.	0.	0.
-2.5	4.33012676239	-4.0	0.	0.	0.	0.
-2.5	4.33012676239	-3.0	0.	0.	0.	0.
-2.5	4.33012676239	-2.0	0.	0.	0.	0.
-2.5	4.33012676239	-1.0	0.	0.	0.	0.
-2.5	4.33012676239	0.0	0.	0.	0.	0.
-1.89704751968	4.57987785339	-10.0	0.	0.	0.	0.
-1.89704751968	4.57987785339	-9.0	0.	0.	0.	0.
-1.89704751968	4.57987785339	-8.0	0.	0.	0.	0.
-1.89704751968	4.57987785339	-7.0	0.	0.	0.	0.
-1.89704751968	4.57987785339	-6.0	0.	0.	0.	0.
-1.89704751968	4.57987785339	-5.0	0.	0.	0.	0.
-1.89704751968	4.57987785339	-4.0	0.	0.	0.	0.
-1.89704751968	4.57987785339	-3.0	0.	0.	0.	0.
-1.89704751968	4.57987785339	-2.0	0.	0.	0.	0.
-1.89704751968	4.57987785339	-1.0	0.	0.	0.	0.
-1.89704751968	4.57987785339	0.0	0.	0.	0.	0.
-1.29409503937	4.8296289444	-10.0	0.	0.	0.	0.
-1.29409503937	4.8296289444	-9.0	0.	0.	0.	0.
-1.29409503937	4.8296289444	-8.0	0.	0.	0.	0.
-1.29409503937	4.8296289444	-7.0	0.	0.	0.	0.
-1.29409503937	4.8296289444	-6.0	0.	0.	0.	0.
-1.29409503937	4.8296289444	-5.0	0.	0.	0.	0.
-1.29409503937	4.8296289444	-4.0	0.	0.	0.	0.
-1.29409503937	4.8296289444	-3.0	0.	0.	0.	0.
-1.29409503937	4.8296289444	-2.0	0.	0.	0.	0.
-1.29409503937	4.8296289444	-1.0	0.	0.	0.	0.
-1.29409503937	4.8296289444	0.0	0.	0.	0.	0.
-3.53553390503	3.53553390503	-10.0	0.	0.	0.	0.
-3.53553390503	3.53553390503	-9.0	0.	0.	0.	0.
-3.53553390503	3.53553390503	-8.0	0.	0.	0.	0.
-3.53553390503	3.53553390503	-7.0	0.	0.	0.	0.
-3.53553390503	3.53553390503	-6.0	0.	0.	0.	0.
-3.53553390503	3.53553390503	-5.0	0.	0.	0.	0.
-3.53553390503	3.53553390503	-4.0	0.	0.	0.	0.
-3.53553390503	3.53553390503	-3.0	0.	0.	0.	0.
-3.53553390503	3.53553390503	-2.0	0.	0.	0.	0.
-3.53553390503	3.53553390503	-1.0	0.	0.	0.	0.
-3.53553390503	3.53553390503	0.0	0.	0.	0.	0.
-3.01776695251	3.93283033371	-10.0	0.	0.	0.	0.
-3.01776695251	3.93283033371	-9.0	0.	0.	0.	0.
-3.01776695251	3.93283033371	-8.0	0.	0.	0.	0.
-3.01776695251	3.93283033371	-7.0	0.	0.	0.	0.
-3.01776695251	3.93283033371	-6.0	0.	0.	0.	0.
-3.01776695251	3.93283033371	-5.0	0.	0.	0.	0.
-3.01776695251	3.93283033371	-4.0	0.	0.	0.	0.
-3.01776695251	3.93283033371	-3.0	0.	0.	0.	0.
-3.01776695251	3.93283033371	-2.0	0.	0.	0.	0.
-3.01776695251	3.93283033371	-1.0	0.	0.	0.	0.
-3.01776695251	3.93283033371	0.0	0.	0.	0.	0.
-2.5	4.33012676239	-10.0	0.	0.	0.	0.
-2.5	4.33012676239	-9.0	0.	0.	0.	0.
-2.5	4.33012676239	-8.0	0.	0.	0.	0.
-2.5	4.33012676239	-7.0	0.	0.	0.	0.
-2.5	4.33012676239	-6.0	0.	0.	0.	0.
-2.5	4.33012676239	-5.0	0.	0.	0.	0.
-2.5	4.33012676239	-4.0	0.	0.	0.	0.
-2.5	4.33012676239	-3.0	0.	0.	0.	0.
-2.5	4.33012676239	-2.0	0.	0.	0.	0.
-2.5	4.33012676239	-1.0	0.	0.	0.	0.
-2.5	4.33012676239	0.0	0.	0.	0.	0.
-4.33012676239	2.5	-10.0	0.	0.	0.	0.
-4.33012676239	2.5	-9.0	0.	0.	0.	0.
-4.33012676239	2.5	-8.0	0.	0.	0.	0.
-4.33012676239	2.5	-7.0	0.	0.	0.	0.
-4.33012676239	2.5	-6.0	0.	0.	0.	0.
-4.33012676239	2.5	-5.0	0.	0.	0.	0.
-4.33012676239	2.5	-4.0	0.	0.	0.	0.
-4.33012676239	2.5	-3.0	0.	0.	0.	0.
-4.33012676239	2.5	-2.0	0.	0.	0.	0.
-4.33012676239	2.5	-1.0	0.	0.	0.	0.
-4.33012676239	2.5	0.0	0.	0.	0.	0.
-3.93283033371	3.01776695251	-10.0	0.	0.	0.	0.
-3.93283033371	3.01776695251	-9.0	0.	0.	0.	0.
-3.93283033371	3.01776695251	-8.0	0.	0.	0.	0.
-3.93283033371	3.01776695251	-7.0	0.	0.	0.	0.
-3.93283033371	3.01776695251	-6.0	0.	0.	0.	0.
-3.93283033371	3.01776695251	-5.0	0.	0.	0.	0.
-3.93283033371	3.01776695251	-4.0	0.	0.	0.	0.
-3.93283033371	3.01776695251	-3.0	0.	0.	0.	0.
-3.93283033371	3.01776695251	-2.0	0.	0.	0.	0.
-3.93283033371	3.01776695251	-1.0	0.	0.	0.	0.
-3.93283033371	3.01776695251	0.0	0.	0.	0.	0.
-3.53553390503	3.53553390503	-10.0	0.	0.	0.	0.
-3.53553390503	3.53553390503	-9.0	0.	0.	0.	0.
-3.53553390503	3.53553390503	-8.0	0.	0.	0.	0.
-3.53553390503	3.53553390503	-7.0	0.	0.	0.	0.
-3.53553390503	3.53553390503	-6.0	0.	0.	0.	0.
-3.53553390503	3.53553390503	-5.0	0.	0.	0.	0.
-3.53553390503	3.53553390503	-4.0	0.	0.	0.	0.
-3.53553390503	3.53553390503	-3.0	0.	0.	0.	0.
-3.53553390503	3.53553390503	-2.0	0.	0.	0.	0.
-3.53553390503	3.53553390503	-1.0	0.	0.	0.	0.
-3.53553390503	3.53553390503	0.0	0.	0.	0.	0.
-4.8296289444	1.29409503937	-10.0	0.	0.	0.	0.
-4.8296289444	1.29409503937	-9.0	0.	0.	0.	0.
-4.8296289444	1.29409503937	-8.0	0.	0.	0.	0.
-4.8296289444	1.29409503937	-7.0	0.	0.	0.	0.
-4.8296289444	1.29409503937	-6.0	0.	0.	0.	0.
-4.8296289444	1.29409503937	-5.0	0.	0.	0.	0.
-4.8296289444	1.29409503937	-4.0	0.	0.	0.	0.
-4.8296289444	1.29409503937	-3.0	0.	0.	0.	0.
-4.8296289444	1.29409503937	-2.0	0.	0.	0.	0.
-4.8296289444	1.29409503937	-1.0	0.	0.	0.	0.
-4.8296289444	1.29409503937	0.0	0.	0.	0.	0.
-4.57987785339	1.89704751968	-10.0	0.	0.	0.	0.
-4.57987785339	1.89704751968	-9.0	0.	0.	0.	0.
-4.57987785339	1.89704751968	-8.0	0.	0.	0.	0.
-4.57987785339	1.89704751968	-7.0	0.	0.	0.	0.
-4.57987785339	1.89704751968	-6.0	0.	0.	0.	0.
-4.57987785339	1.89704751968	-5.0	0.	0.	0.	0.
-4.57987785339	1.89704751968	-4.0	0.	0.	0.	0.
-4.57987785339	1.89704751968	-3.0	0.	0.	0.	0.
-4.57987785339	1.89704751968	-2.0	0.	0.	0.	0.
-4.57987785339	1.89704751968	-1.0	0.	0.	0.	0.
-4.57987785339	1.89704751968	0.0	0.	0.	0.	0.
-4.33012676239	2.5	-10.0	0.	0.	0.	0.
-4.33012676239	2.5	-9.0	0.	0.	0.	0.
-4.33012676239	2.5	-8.0	0.	0.	0.	0.
-4.33012676239	2.5	-7.0	0.	0.	0.	0.
-4.33012676239	2.5	-6.0	0.	0.	0.	0.
-4.33012676239	2.5	-5.0	0.	0.	0.	0.
-4.33012676239	2.5	-4.0	0.	0.	0.	0.
-4.33012676239	2.5	-3.0	0.	0.	0.	0.
-4.33012676239	2.5	-2.0	0.	0.	0.	0.
-4.33012676239	2.5	-1.0	0.	0.	0.	0.
-4.33012676239	2.5	0.0	0.	0.	0.	0.
-5.0	0.0	-10.0	0.	0.	0.	0.
-5.0	0.0	-9.0	0.	0.	0.	0.
-5.0	0.0	-8.0	0.	0.	0.	0.
-5.0	0.0	-7.0	0.	0.	0.	0.
-5.0	0.0	-6.0	0.	0.	0.	0.
-5.0	0.0	-5.0	0.	0.	0.	0.
-5.0	0.0	-4.0	0.	0.	0.	0.
-5.0	0.0	-3.0	0.	0.	0.	0.
-5.0	0.0	-2.0	0.	0.	0.	0.
-5.0	0.0	-1.0	0.	0.	0.	0.
-5.0	0.0	0.0	0.	0.	0.	0.
-4.9148144722	0.647047519684	-10.0	0.	0.	0.	0.
-4.9148144722	0.647047519684	-9.0	0.	0.	0.	0.
-4.9148144722	0.647047519684	-8.0	0.	0.	0.	0.
-4.9148144722	0.647047519684	-7.0	0.	0.	0.	0.
-4.9148144722	0.647047519684	-6.0	0.	0.	0.	0.
-4.9148144722	0.647047519684	-5.0	0.	0.	0.	0.
-4.9148144722	0.647047519684	-4.0	0.	0.	0.	0.
-4.9148144722	0.647047519684	-3.0	0.	0.	0.	0.
-4.9148144722	0.647047519684	-2.0	0.	0.	0.	0.
-4.9148144722	0.647047519684	-1.0	0.	0.	0.	0.
-4.9148144722	0.647047519684	0.0	0.	0.	0.	0.
-4.8296289444	1.29409503937	-10.0	0.	0.	0.	0.
-4.8296289444	1.29409503937	-9.0	0.	0.	0.	0.
-4.8296289444	1.29409503937	-8.0	0.	0.	0.	0.
-4.8296289444	1.29409503937	-7.0	0.	0.	0.	0.
-4.8296289444	1.29409503937	-6.0	0.	0.	0.	0.
-4.8296289444	1.29409503937	-5.0	0.	0.	0.	0.
-4.8296289444	1.29409503937	-4.0	0.	0.	0.	0.
-4.8296289444	1.29409503937	-3.0	0.	0.	0.	0.
-4.8296289444	1.29409503937	-2.0	0.	0.	0.	0.
-4.8296289444	1.29409503937	-1.0	0.	0.	0.	0.
-4.8296289444	1.29409503937	0.0	0.	0.	0.	0.
0.0	0.0	-10.0	0.	0.	0.	0.
0.0	0.0	-10.0	0.	0.	0.	0.
1.0	0.0	-10.0	0.	0.	0.	0.
0.965925812721	0.258819013834	-10.0	0.	0.	0.	0.
2.0	0.0	-10.0	0.	0.	0.	0.
1.93185162544	0.517638027668	-10.0	0.	0.	0.	0.
3.0	0.0	-10.0	0.	0.	0.	0.
2.89777731895	0.7764570117	-10.0	0.	0.	0.	0.
4.0	0.0	-10.0	0.	0.	0.	0.
3.86370325089	1.03527605534	-10.0	0.	0.	0.	0.
5.0	0.0	-10.0	0.	0.	0.	0.
4.8296289444	1.29409503937	-10.0	0.	0.	0.	0.
0.0	0.0	-10.0	0.	0.	0.	0.
0.0	0.0	-10.0	0.	0.	0.	0.
0.965925812721	0.258819013834	-10.0	0.	0.	0.	0.
0.866025328636	0.5	-10.0	0.	0.	0.	0.
1.93185162544	0.517638027668	-10.0	0.	0.	0.	0.
1.73205065727	1.0	-10.0	0.	0.	0.	0.
2.89777731895	0.7764570117	-10.0	0.	0.	0.	0.
2.59807610512	1.5	-10.0	0.	0.	0.	0.
3.86370325089	1.03527605534	-10.0	0.	0.	0.	0.
3.46410131454	2.0	-10.0	0.	0.	0.	0.
4.8296289444	1.29409503937	-10.0	0.	0.	0.	0.
4.33012676239	2.5	-10.0	0.	0.	0.	0.
0.0	0.0	-10.0	0.	0.	0.	0.
0.0	0.0	-10.0	0.	0.	0.	0.
0.866025328636	0.5	-10.0	0.	0.	0.	0.
0.70710682869	0.70710682869	-10.0	0.	0.	0.	0.
1.73205065727	1.0	-10.0	0.	0.	0.	0.
1.41421353817	1.41421353817	-10.0	0.	0.	0.	0.
2.59807610512	1.5	-10.0	0.	0.	0.	0.
2.12132024765	2.12132024765	-10.0	0.	0.	0.	0.
3.46410131454	2.0	-10.0	0.	0.	0.	0.
2.82842707634	2.82842707634	-10.0	0.	0.	0.	0.
4.33012676239	2.5	-10.0	0.	0.	0.	0.
3.53553390503	3.53553390503	-10.0	0.	0.	0.	0.
0.0	0.0	-10.0	0.	0.	0.	0.
0.0	0.0	-10.0	0.	0.	0.	0.
0.70710682869	0.70710682869	-10.0	0.	0.	0.	0.
0.5	0.866025328636	-10.0	0.	0.	0.	0.
1.41421353817	1.41421353817	-10.0	0.	0.	0.	0.
1.0	1.73205065727	-10.0	0.	0.	0.	0.
2.12132024765	2.12132024765	-10.0	0.	0.	0.	0.
1.5	2.59807610512	-10.0	0.	0.	0.	0.
2.82842707634	2.82842707634	-10.0	0.	0.	0.	0.
2.0	3.46410131454	-10.0	0.	0.	0.	0.
3.53553390503	3.53553390503	-10.0	0.	0.	0.	0.
2.5	4.33012676239	-10.0	0.	0.	0.	0.
0.0	0.0	-10.0	0.	0.	0.	0.
0.0	0.0	-10.0	0.	0.	0.	0.
0.5	0.866025328636	-10.0	0.	0.	0.	0.
0.258819013834	0.965925812721	-10.0	0.	0.	0.	0.
1.0	1.73205065727	-10.0	0.	0.	0.	0.
0.517638027668	1.93185162544	-10.0	0.	0.	0.	0.
1.5	2.59807610512	-10.0	0.	0.	0.	0.
0.7764570117	2.89777731895	-10.0	0.	0.	0.	0.
2.0	3.46410131454	-10.0	0.	0.	0.	0.
1.03527605534	3.86370325089	-10.0	0.	0.	0.	0.
2.5	4.33012676239	-10.0	0.	0.	0.	0.
1.29409503937	4.8296289444	-10.0	0.	0.	0.	0.
0.0	0.0	-10.0	0.	0.	0.	0.
0.0	0.0	-10.0	0.	0.	0.	0.
0.258819013834	0.965925812721	-10.0	0.	0.	0.	0.
0.0	1.0	-10.0	0.	0.	0.	0.
0.517638027668	1.93185162544	-10.0	0.	0.	0.	0.
0.0	2.0	-10.0	0.	0.	0.	0.
0.7764570117	2.89777731895	-10.0	0.	0.	0.	0.
0.0	3.0	-10.0	0.	0.	0.	0.
1.03527605534	3.86370325089	-10.0	0.	0.	0.	0.
0.0	4.0	-10.0	0.	0.	0.	0.
1.29409503937	4.8296289444	-10.0	0.	0.	0.	0.
0.0	5.0	-10.0	0.	0.	0.	0.
0.0	0.0	-10.0	0.	0.	0.	0.
0.0	0.0	-10.0	0.	0.	0.	0.
0.0	1.0	-10.0	0.	0.	0.	0.
-0.258819013834	0.965925812721	-10.0	0.	0.	0.	0.
0.0	2.0	-10.0	0.	0.	0.	0.
-0.517638027668	1.93185162544	-10.0	0.	0.	0.	0.
0.0	3.0	-10.0	0.	0.	0.	0.
-0.7764570117	2.89777731895	-10.0	0.	0.	0.	0.
0.0	4.0	-10.0	0.	0.	0.	0.
-1.03527605534	3.86370325089	-10.0	0.	0.	0.	0.
0.0	5.0	-10.0	0.	0.	0.	0.
-1.29409503937	4.8296289444	-10.0	0.	0.	0.	0.
0.0	0.0	-10.0	0.	0.	0.	0.
0.0	0.0	-10.0	0.	0.	0.	0.
-0.258819013834	0.965925812721	-10.0	0.	0.	0.	0.
-0.5	0.866025328636	-10.0	0.	0.	0.	0.
-0.517638027668	1.93185162544	-10.0	0.	0.	0.	0.
-1.0	1.73205065727	-10.0	0.	0.	0.	0.
-0.7764570117	2.89777731895	-10.0	0.	0.	0.	0.
-1.5	2.59807610512	-10.0	0.	0.	0.	0.
-1.03527605534	3.86370325089	-10.0	0.	0.	0.	0.
-2.0	3.46410131454	-10.0	0.	0.	0.	0.
-1.29409503937	4.8296289444	-10.0	0.	0.	0.	0.
-2.5	4.33012676239	-10.0	0.	0.	0.	0.
0.0	0.0	-10.0	0.	0.	0.	0.
0.0	0.0	-10.0	0.	0.	0.	0.
-0.5	0.866025328636	-10.0	0.	0.	0.	0.
-0.70710682869	0.70710682869	-10.0	0.	0.	0.	0.
-1.0	1.73205065727	-10.0	0.	0.	0.	0.
-1.41421353817	1.41421353817	-10.0	0.	0.	0.	0.
-1.5	2.59807610512	-10.0	0.	0.	0.	0.
-2.12132024765	2.12132024765	-10.0	0.	0.	0.	0.
-2.0	3.46410131454	-10.0	0.	0.	0.	0.
-2.82842707634	2.82842707634	-10.0	0.	0.	0.	0.
-2.5	4.33012676239	-10.0	0.	0.	0.	0.
-3.53553390503	3.53553390503	-10.0	0.	0.	0.	0.
0.0	0.0	-10.0	0.	0.	0.	0.
0.0	0.0	-10.0	0.	0.	0.	0.
-0.70710682869	0.70710682869	-10.0	0.	0.	0.	0.
-0.866025328636	0.5	-10.0	0.	0.	0.	0.
-1.41421353817	1.41421353817	-10.0	0.	0.	0.	0.
-1.73205065727	1.0	-10.0	0.	0.	0.	0.
-2.12132024765	2.12132024765	-10.0	0.	0.	0.	0.
-2.59807610512	1.5	-10.0	0.	0.	0.	0.
-2.82842707634	2.82842707634	-10.0	0.	0.	0.	0.
-3.46410131454	2.0	-10.0	0.	0.	0.	0.
-3.53553390503	3.53553390503	-10.0	0.	0.	0.	0.
-4.33012676239	2.5	-10.0	0.	0.	0.	0.
0.0	0.0	-10.0	0.	0.	0.	0.
0.0	0.0	-10.0	0.	0.	0.	0.
-0.866025328636	0.5	-10.0	0.	0.	0.	0.
-0.965925812721	0.258819013834	-10.0	0.	0.	0.	0.
-1.73205065727	1.0	-10.0	0.	0.	0.	0.
-1.93185162544	0.517638027668	-10.0	0.	0.	0.	0.
-2.59807610512	1.5	-10.0	0.	0.	0.	0.
-2.89777731895	0.7764570117	-10.0	0.	0.	0.	0.
-3.46410131454	2.0	-10.0	0.	0.	0.	0.
-3.86370325089	1.03527605534	-10.0	0.	0.	0.	0.
-4.33012676239	2.5	-10.0	0.	0.	0.	0.
-4.8296289444	1.29409503937	-10.0	0.	0.	0.	0.
0.0	0.0	-10.0	0.	0.	0.	0.
0.0	0.0	-10.0	0.	0.	0.	0.
-0.965925812721	0.258819013834	-10.0	0.	0.	0.	0.
-1.0	0.0	-10.0	0.	0.	0.	0.
-1.93185162544	0.517638027668	-10.0	0.	0.	0.	0.
-2.0	0.0	-10.0	0.	0.	0.	0.
-2.89777731895	0.7764570117	-10.0	0.	0.	0.	0.
-3.0	0.0	-10.0	0.	0.	0.	0.
-3.86370325089	1.03527605534	-10.0	0.	0.	0.	0.
-4.0	0.0	-10.0	0.	0.	0.	0.
-4.8296289444	1.29409503937	-10.0	0.	0.	0.	0.
-5.0	0.0	-10.0	0.	0.	0.	0.
1.0	2.0	13.0	12.0
2.0	3.0	14.0	13.0
3.0	4.0	15.0	14.0
4.0	5.0	16.0	15.0
5.0	6.0	17.0	16.0
6.0	7.0	18.0	17.0
7.0	8.0	19.0	18.0
8.0	9.0	20.0	19.0
9.0	10.0	21.0	20.0
10.0	11.0	22.0	21.0
12.0	13.0	24.0	23.0
13.0	14.0	25.0	24.0
14.0	15.0	26.0	25.0
15.0	16.0	27.0	26.0
16.0	17.0	28.0	27.0
17.0	18.0	29.0	28.0
18.0	19.0	30.0	29.0
19.0	20.0	31.0	30.0
20.0	21.0	32.0	31.0
21.0	22.0	33.0	32.0
34.0	35.0	46.0	45.0
35.0	36.0	47.0	46.0
36.0	37.0	48.0	47.0
37.0	38.0	49.0	48.0
38.0	39.0	50.0	49.0
39.0	40.0	51.0	50.0
40.0	41.0	52.0	51.0
41.0	42.0	53.0	52.0
42.0	43.0	54.0	53.0
43.0	44.0	55.0	54.0
45.0	46.0	57.0	56.0
46.0	47.0	58.0	57.0
47.0	48.0	59.0	58.0
48.0	49.0	60.0	59.0
49.0	50.0	61.0	60.0
50.0	51.0	62.0	61.0
51.0	52.0	63.0	62.0
52.0	53.0	64.0	63.0
53.0	54.0	65.0	64.0
54.0	55.0	66.0	65.0
67.0	68.0	79.0	78.0
68.0	69.0	80.0	79.0
69.0	70.0	81.0	80.0
70.0	71.0	82.0	81.0
71.0	72.0	83.0	82.0
72.0	73.0	84.0	83.0
73.0	74.0	85.0	84.0
74.0	75.0	86.0	85.0
75.0	76.0	87.0	86.0
76.0	77.0	88.0	87.0
78.0	79.0	90.0	89.0
79.0	80.0	91.0	90.0
80.0	81.0	92.0	91.0
81.0	82.0	93.0	92.0
82.0	83.0	94.0	93.0
83.0	84.0	95.0	94.0
84.0	85.0	96.0	95.0
85.0	86.0	97.0	96.0
86.0	87.0	98.0	97.0
87.0	88.0	99.0	98.0
100.0	101.0	112.0	111.0
101.0	102.0	113.0	112.0
102.0	103.0	114.0	113.0
103.0	104.0	115.0	114.0
104.0	105.0	116.0	115.0
105.0	106.0	117.0	116.0
106.0	107.0	118.0	117.0
107.0	108.0	119.0	118.0
108.0	109.0	120.0	119.0
109.0	110.0	121.0	120.0
111.0	112.0	123.0	122.0
112.0	113.0	124.0	123.0
113.0	114.0	125.0	124.0
114.0	115.0	126.0	125.0
115.0	116.0	127.0	126.0
116.0	117.0	128.0	127.0
117.0	118.0	129.0	128.0
118.0	119.0	130.0	129.0
119.0	120.0	131.0	130.0
120.0	121.0	132.0	131.0
133.0	134.0	145.0	144.0
134.0	135.0	146.0	145.0
135.0	136.0	147.0	146.0
136.0	137.0	148.0	147.0
137.0	138.0	149.0	148.0
138.0	139.0	150.0	149.0
139.0	140.0	151.0	150.0
140.0	141.0	152.0	151.0
141.0	142.0	153.0	152.0
142.0	143.0	154.0	153.0
144.0	145.0	156.0	155.0
145.0	146.0	157.0	156.0
146.0	147.0	158.0	157.0
147.0	148.0	159.0	158.0
148.0	149.0	160.0	159.0
149.0	150.0	161.0	160.0
150.0	151.0	162.0	161.0
151.0	152.0	163.0	162.0
152.0	153.0	164.0	163.0
153.0	154.0	165.0	164.0
166.0	167.0	178.0	177.0
167.0	168.0	179.0	178.0
168.0	169.0	180.0	179.0
169.0	170.0	181.0	180.0
170.0	171.0	182.0	181.0
171.0	172.0	183.0	182.0
172.0	173.0	184.0	183.0
173.0	174.0	185.0	184.0
174.0	175.0	186.0	185.0
175.0	176.0	187.0	186.0
177.0	178.0	189.0	188.0
178.0	179.0	190.0	189.0
179.0	180.0	191.0	190.0
180.0	181.0	192.0	191.0
181.0	182.0	193.0	192.0
182.0	183.0	194.0	193.0
183.0	184.0	195.0	194.0
184.0	185.0	196.0	195.0
185.0	186.0	197.0	196.0
186.0	187.0	198.0	197.0
199.0	200.0	211.0	210.0
200.0	201.0	212.0	211.0
201.0	202.0	213.0	212.0
202.0	203.0	214.0	213.0
203.0	204.0	215.0	214.0
204.0	205.0	216.0	215.0
205.0	206.0	217.0	216.0
206.0	207.0	218.0	217.0
207.0	208.0	219.0	218.0
208.0	209.0	220.0	219.0
210.0	211.0	222.0	221.0
211.0	212.0	223.0	222.0
212.0	213.0	224.0	223.0
213.0	214.0	225.0	224.0
214.0	215.0	226.0	225.0
215.0	216.0	227.0	226.0
216.0	217.0	228.0	227.0
217.0	218.0	229.0	228.0
218.0	219.0	230.0	229.0
219.0	220.0	231.0	230.0
232.0	233.0	244.0	243.0
233.0	234.0	245.0	244.0
234.0	235.0	246.0	245.0
235.0	236.0	247.0	246.0
236.0	237.0	248.0	247.0
237.0	238.0	249.0	248.0
238.0	239.0	250.0	249.0
239.0	240.0	251.0	250.0
240.0	241.0	252.0	251.0
241.0	242.0	253.0	252.0
243.0	244.0	255.0	254.0
244.0	245.0	256.0	255.0
245.0	246.0	257.0	256.0
246.0	247.0	258.0	257.0
247.0	248.0	259.0	258.0
248.0	249.0	260.0	259.0
249.0	250.0	261.0	260.0
250.0	251.0	262.0	261.0
251.0	252.0	263.0	262.0
252.0	253.0	264.0	263.0
265.0	266.0	277.0	276.0
266.0	267.0	278.0	277.0
267.0	268.0	279.0	278.0
268.0	269.0	280.0	279.0
269.0	270.0	281.0	280.0
270.0	271.0	282.0	281.0
271.0	272.0	283.0	282.0
272.0	273.0	284.0	283.0
273.0	274.0	285.0	284.0
274.0	275.0	286.0	285.0
276.0	277.0	288.0	287.0
277.0	278.0	289.0	288.0
278.0	279.0	290.0	289.0
279.0	280.0	291.0	290.0
280.0	281.0	292.0	291.0
281.0	282.0	293.0	292.0
282.0	283.0	294.0	293.0
283.0	284.0	295.0	294.0
284.0	285.0	296.0	295.0
285.0	286.0	297.0	296.0
298.0	299.0	310.0	309.0
299.0	300.0	311.0	310.0
300.0	301.0	312.0	311.0
301.0	302.0	313.0	312.0
302.0	303.0	314.0	313.0
303.0	304.0	315.0	314.0
304.0	305.0	316.0	315.0
305.0	306.0	317.0	316.0
306.0	307.0	318.0	317.0
307.0	308.0	319.0	318.0
309.0	310.0	321.0	320.0
310.0	311.0	322.0	321.0
311.0	312.0	323.0	322.0
312.0	313.0	324.0	323.0
313.0	314.0	325.0	324.0
314.0	315.0	326.0	325.0
315.0	316.0	327.0	326.0
316.0	317.0	328.0	327.0
317.0	318.0	329.0	328.0
318.0	319.0	330.0	329.0
331.0	332.0	343.0	342.0
332.0	333.0	344.0	343.0
333.0	334.0	345.0	344.0
334.0	335.0	346.0	345.0
335.0	336.0	347.0	346.0
336.0	337.0	348.0	347.0
337.0	338.0	349.0	348.0
338.0	339.0	350.0	349.0
339.0	340.0	351.0	350.0
340.0	341.0	352.0	351.0
342.0	343.0	354.0	353.0
343.0	344.0	355.0	354.0
344.0	345.0	356.0	355.0
345.0	346.0	357.0	356.0
346.0	347.0	358.0	357.0
347.0	348.0	359.0	358.0
348.0	349.0	360.0	359.0
349.0	350.0	361.0	360.0
350.0	351.0	362.0	361.0
351.0	352.0	363.0	362.0
364.0	365.0	376.0	375.0
365.0	366.0	377.0	376.0
366.0	367.0	378.0	377.0
367.0	368.0	379.0	378.0
368.0	369.0	380.0	379.0
369.0	370.0	381.0	380.0
370.0	371.0	382.0	381.0
371.0	372.0	383.0	382.0
372.0	373.0	384.0	383.0
373.0	374.0	385.0	384.0
375.0	376.0	387.0	386.0
376.0	377.0	388.0	387.0
377.0	378.0	389.0	388.0
378.0	379.0	390.0	389.0
379.0	380.0	391.0	390.0
380.0	381.0	392.0	391.0
381.0	382.0	393.0	392.0
382.0	383.0	394.0	393.0
383.0	384.0	395.0	394.0
384.0	385.0	396.0	395.0
397.0	398.0	400.0	399.0
399.0	400.0	402.0	401.0
401.0	402.0	404.0	403.0
403.0	404.0	406.0	405.0
405.0	406.0	408.0	407.0
409.0	410.0	412.0	411.0
411.0	412.0	414.0	413.0
413.0	414.0	416.0	415.0
415.0	416.0	418.0	417.0
417.0	418.0	420.0	419.0
421.0	422.0	424.0	423.0
423.0	424.0	426.0	425.0
425.0	426.0	428.0	427.0
427.0	428.0	430.0	429.0
429.0	430.0	432.0	431.0
433.0	434.0	436.0	435.0
435.0	436.0	438.0	437.0
437.0	438.0	440.0	439.0
439.0	440.0	442.0	441.0
441.0	442.0	444.0	443.0
445.0	446.0	448.0	447.0
447.0	448.0	450.0	449.0
449.0	450.0	452.0	451.0
451.0	452.0	454.0	453.0
453.0	454.0	456.0	455.0
457.0	458.0	460.0	459.0
459.0	460.0	462.0	461.0
461.0	462.0	464.0	463.0
463.0	464.0	466.0	465.0
465.0	466.0	468.0	467.0
469.0	470.0	472.0	471.0
471.0	472.0	474.0	473.0
473.0	474.0	476.0	475.0
475.0	476.0	478.0	477.0
477.0	478.0	480.0	479.0
481.0	482.0	484.0	483.0
483.0	484.0	486.0	485.0
485.0	486.0	488.0	487.0
487.0	488.0	490.0	489.0
489.0	490.0	492.0	491.0
493.0	494.0	496.0	495.0
495.0	496.0	498.0	497.0
497.0	498.0	500.0	499.0
499.0	500.0	502.0	501.0
501.0	502.0	504.0	503.0
505.0	506.0	508.0	507.0
507.0	508.0	510.0	509.0
509.0	510.0	512.0	511.0
511.0	512.0	514.0	513.0
513.0	514.0	516.0	515.0
517.0	518.0	520.0	519.0
519.0	520.0	522.0	521.0
521.0	522.0	524.0	523.0
523.0	524.0	526.0	525.0
525.0	526.0	528.0	527.0
529.0	530.0	532.0	531.0
531.0	532.0	534.0	533.0
533.0	534.0	536.0	535.0
535.0	536.0	538.0	537.0
537.0	538.0	540.0	539.0
ZONE t="normales", F=POINT, I=	300
4.8722217083	0.970571279526	-9.5	0.991444840399	0.130526351537	0.0	0.652630881031
4.8722217083	0.970571279526	-8.5	0.991444840399	0.130526351537	0.0	0.652630881031
4.8722217083	0.970571279526	-7.5	0.991444840399	0.130526351537	0.0	0.652630881031
4.8722217083	0.970571279526	-6.5	0.991444840399	0.130526351537	0.0	0.652630881031
4.8722217083	0.970571279526	-5.5	0.991444840399	0.130526351537	0.0	0.652630881031
4.8722217083	0.970571279526	-4.5	0.991444840399	0.130526351537	0.0	0.652630881031
4.8722217083	0.970571279526	-3.5	0.991444840399	0.130526351537	0.0	0.652630881031
4.8722217083	0.970571279526	-2.5	0.991444840399	0.130526351537	0.0	0.652630881031
4.8722217083	0.970571279526	-1.5	0.991444840399	0.130526351537	0.0	0.652630881031
4.8722217083	0.970571279526	-0.5	0.991444840399	0.130526351537	0.0	0.652630881031
4.9574072361	0.323523759842	-9.5	0.991444840399	0.130526351537	0.0	0.652630881031
4.9574072361	0.323523759842	-8.5	0.991444840399	0.130526351537	0.0	0.652630881031
4.9574072361	0.323523759842	-7.5	0.991444840399	0.130526351537	0.0	0.652630881031
4.9574072361	0.323523759842	-6.5	0.991444840399	0.130526351537	0.0	0.652630881031
4.9574072361	0.323523759842	-5.5	0.991444840399	0.130526351537	0.0	0.652630881031
4.9574072361	0.323523759842	-4.5	0.991444840399	0.130526351537	0.0	0.652630881031