VARIABLES="X" "Y" "Z" "NX" "NY" "NZ" "A"
ZONE N=	693	, E=	560	, F=FEPOINT,ET=QUADRILATERAL
0.0	-5.0	-5.0	0.	0.	0.	0.
0.0	-5.0	-4.28571414948	0.	0.	0.	0.
0.0	-5.0	-3.57142853737	0.	0.	0.	0.
0.0	-5.0	-2.85714292526	0.	0.	0.	0.
0.0	-5.0	-2.14285707474	0.	0.	0.	0.
0.0	-5.0	-1.42857146263	0.	0.	0.	0.
0.0	-5.0	-0.71428591013	0.	0.	0.	0.
0.0	-5.0	0.0	0.	0.	0.	0.
-0.5	-4.5	-5.0	0.	0.	0.	0.
-0.5	-4.5	-4.28571414948	0.	0.	0.	0.
-0.5	-4.5	-3.57142853737	0.	0.	0.	0.
-0.5	-4.5	-2.85714292526	0.	0.	0.	0.
-0.5	-4.5	-2.14285707474	0.	0.	0.	0.
-0.5	-4.5	-1.42857146263	0.	0.	0.	0.
-0.5	-4.5	-0.71428591013	0.	0.	0.	0.
-0.5	-4.5	0.0	0.	0.	0.	0.
-1.0	-4.0	-5.0	0.	0.	0.	0.
-1.0	-4.0	-4.28571414948	0.	0.	0.	0.
-1.0	-4.0	-3.57142853737	0.	0.	0.	0.
-1.0	-4.0	-2.85714292526	0.	0.	0.	0.
-1.0	-4.0	-2.14285707474	0.	0.	0.	0.
-1.0	-4.0	-1.42857146263	0.	0.	0.	0.
-1.0	-4.0	-0.71428591013	0.	0.	0.	0.
-1.0	-4.0	0.0	0.	0.	0.	0.
-1.5	-3.5	-5.0	0.	0.	0.	0.
-1.5	-3.5	-4.28571414948	0.	0.	0.	0.
-1.5	-3.5	-3.57142853737	0.	0.	0.	0.
-1.5	-3.5	-2.85714292526	0.	0.	0.	0.
-1.5	-3.5	-2.14285707474	0.	0.	0.	0.
-1.5	-3.5	-1.42857146263	0.	0.	0.	0.
-1.5	-3.5	-0.71428591013	0.	0.	0.	0.
-1.5	-3.5	0.0	0.	0.	0.	0.
-2.0	-3.0	-5.0	0.	0.	0.	0.
-2.0	-3.0	-4.28571414948	0.	0.	0.	0.
-2.0	-3.0	-3.57142853737	0.	0.	0.	0.
-2.0	-3.0	-2.85714292526	0.	0.	0.	0.
-2.0	-3.0	-2.14285707474	0.	0.	0.	0.
-2.0	-3.0	-1.42857146263	0.	0.	0.	0.
-2.0	-3.0	-0.71428591013	0.	0.	0.	0.
-2.0	-3.0	0.0	0.	0.	0.	0.
-2.5	-2.5	-5.0	0.	0.	0.	0.
-2.5	-2.5	-4.28571414948	0.	0.	0.	0.
-2.5	-2.5	-3.57142853737	0.	0.	0.	0.
-2.5	-2.5	-2.85714292526	0.	0.	0.	0.
-2.5	-2.5	-2.14285707474	0.	0.	0.	0.
-2.5	-2.5	-1.42857146263	0.	0.	0.	0.
-2.5	-2.5	-0.71428591013	0.	0.	0.	0.
-2.5	-2.5	0.0	0.	0.	0.	0.
-3.0	-2.0	-5.0	0.	0.	0.	0.
-3.0	-2.0	-4.28571414948	0.	0.	0.	0.
-3.0	-2.0	-3.57142853737	0.	0.	0.	0.
-3.0	-2.0	-2.85714292526	0.	0.	0.	0.
-3.0	-2.0	-2.14285707474	0.	0.	0.	0.
-3.0	-2.0	-1.42857146263	0.	0.	0.	0.
-3.0	-2.0	-0.71428591013	0.	0.	0.	0.
-3.0	-2.0	0.0	0.	0.	0.	0.
-3.5	-1.5	-5.0	0.	0.	0.	0.
-3.5	-1.5	-4.28571414948	0.	0.	0.	0.
-3.5	-1.5	-3.57142853737	0.	0.	0.	0.
-3.5	-1.5	-2.85714292526	0.	0.	0.	0.
-3.5	-1.5	-2.14285707474	0.	0.	0.	0.
-3.5	-1.5	-1.42857146263	0.	0.	0.	0.
-3.5	-1.5	-0.71428591013	0.	0.	0.	0.
-3.5	-1.5	0.0	0.	0.	0.	0.
-4.0	-1.0	-5.0	0.	0.	0.	0.
-4.0	-1.0	-4.28571414948	0.	0.	0.	0.
-4.0	-1.0	-3.57142853737	0.	0.	0.	0.
-4.0	-1.0	-2.85714292526	0.	0.	0.	0.
-4.0	-1.0	-2.14285707474	0.	0.	0.	0.
-4.0	-1.0	-1.42857146263	0.	0.	0.	0.
-4.0	-1.0	-0.71428591013	0.	0.	0.	0.
-4.0	-1.0	0.0	0.	0.	0.	0.
-4.5	-0.5	-5.0	0.	0.	0.	0.
-4.5	-0.5	-4.28571414948	0.	0.	0.	0.
-4.5	-0.5	-3.57142853737	0.	0.	0.	0.
-4.5	-0.5	-2.85714292526	0.	0.	0.	0.
-4.5	-0.5	-2.14285707474	0.	0.	0.	0.
-4.5	-0.5	-1.42857146263	0.	0.	0.	0.
-4.5	-0.5	-0.71428591013	0.	0.	0.	0.
-4.5	-0.5	0.0	0.	0.	0.	0.
-5.0	0.0	-5.0	0.	0.	0.	0.
-5.0	0.0	-4.28571414948	0.	0.	0.	0.
-5.0	0.0	-3.57142853737	0.	0.	0.	0.
-5.0	0.0	-2.85714292526	0.	0.	0.	0.
-5.0	0.0	-2.14285707474	0.	0.	0.	0.
-5.0	0.0	-1.42857146263	0.	0.	0.	0.
-5.0	0.0	-0.71428591013	0.	0.	0.	0.
-5.0	0.0	0.0	0.	0.	0.	0.
5.0	0.0	-5.0	0.	0.	0.	0.
5.0	0.0	-4.28571414948	0.	0.	0.	0.
5.0	0.0	-3.57142853737	0.	0.	0.	0.
5.0	0.0	-2.85714292526	0.	0.	0.	0.
5.0	0.0	-2.14285707474	0.	0.	0.	0.
5.0	0.0	-1.42857146263	0.	0.	0.	0.
5.0	0.0	-0.71428591013	0.	0.	0.	0.
5.0	0.0	0.0	0.	0.	0.	0.
4.5	-0.5	-5.0	0.	0.	0.	0.
4.5	-0.5	-4.28571414948	0.	0.	0.	0.
4.5	-0.5	-3.57142853737	0.	0.	0.	0.
4.5	-0.5	-2.85714292526	0.	0.	0.	0.
4.5	-0.5	-2.14285707474	0.	0.	0.	0.
4.5	-0.5	-1.42857146263	0.	0.	0.	0.
4.5	-0.5	-0.71428591013	0.	0.	0.	0.
4.5	-0.5	0.0	0.	0.	0.	0.
4.0	-1.0	-5.0	0.	0.	0.	0.
4.0	-1.0	-4.28571414948	0.	0.	0.	0.
4.0	-1.0	-3.57142853737	0.	0.	0.	0.
4.0	-1.0	-2.85714292526	0.	0.	0.	0.
4.0	-1.0	-2.14285707474	0.	0.	0.	0.
4.0	-1.0	-1.42857146263	0.	0.	0.	0.
4.0	-1.0	-0.71428591013	0.	0.	0.	0.
4.0	-1.0	0.0	0.	0.	0.	0.
3.5	-1.5	-5.0	0.	0.	0.	0.
3.5	-1.5	-4.28571414948	0.	0.	0.	0.
3.5	-1.5	-3.57142853737	0.	0.	0.	0.
3.5	-1.5	-2.85714292526	0.	0.	0.	0.
3.5	-1.5	-2.14285707474	0.	0.	0.	0.
3.5	-1.5	-1.42857146263	0.	0.	0.	0.
3.5	-1.5	-0.71428591013	0.	0.	0.	0.
3.5	-1.5	0.0	0.	0.	0.	0.
3.0	-2.0	-5.0	0.	0.	0.	0.
3.0	-2.0	-4.28571414948	0.	0.	0.	0.
3.0	-2.0	-3.57142853737	0.	0.	0.	0.
3.0	-2.0	-2.85714292526	0.	0.	0.	0.
3.0	-2.0	-2.14285707474	0.	0.	0.	0.
3.0	-2.0	-1.42857146263	0.	0.	0.	0.
3.0	-2.0	-0.71428591013	0.	0.	0.	0.
3.0	-2.0	0.0	0.	0.	0.	0.
2.5	-2.5	-5.0	0.	0.	0.	0.
2.5	-2.5	-4.28571414948	0.	0.	0.	0.
2.5	-2.5	-3.57142853737	0.	0.	0.	0.
2.5	-2.5	-2.85714292526	0.	0.	0.	0.
2.5	-2.5	-2.14285707474	0.	0.	0.	0.
2.5	-2.5	-1.42857146263	0.	0.	0.	0.
2.5	-2.5	-0.71428591013	0.	0.	0.	0.
2.5	-2.5	0.0	0.	0.	0.	0.
2.0	-3.0	-5.0	0.	0.	0.	0.
2.0	-3.0	-4.28571414948	0.	0.	0.	0.
2.0	-3.0	-3.57142853737	0.	0.	0.	0.
2.0	-3.0	-2.85714292526	0.	0.	0.	0.
2.0	-3.0	-2.14285707474	0.	0.	0.	0.
2.0	-3.0	-1.42857146263	0.	0.	0.	0.
2.0	-3.0	-0.71428591013	0.	0.	0.	0.
2.0	-3.0	0.0	0.	0.	0.	0.
1.5	-3.5	-5.0	0.	0.	0.	0.
1.5	-3.5	-4.28571414948	0.	0.	0.	0.
1.5	-3.5	-3.57142853737	0.	0.	0.	0.
1.5	-3.5	-2.85714292526	0.	0.	0.	0.
1.5	-3.5	-2.14285707474	0.	0.	0.	0.
1.5	-3.5	-1.42857146263	0.	0.	0.	0.
1.5	-3.5	-0.71428591013	0.	0.	0.	0.
1.5	-3.5	0.0	0.	0.	0.	0.
1.0	-4.0	-5.0	0.	0.	0.	0.
1.0	-4.0	-4.28571414948	0.	0.	0.	0.
1.0	-4.0	-3.57142853737	0.	0.	0.	0.
1.0	-4.0	-2.85714292526	0.	0.	0.	0.
1.0	-4.0	-2.14285707474	0.	0.	0.	0.
1.0	-4.0	-1.42857146263	0.	0.	0.	0.
1.0	-4.0	-0.71428591013	0.	0.	0.	0.
1.0	-4.0	0.0	0.	0.	0.	0.
0.5	-4.5	-5.0	0.	0.	0.	0.
0.5	-4.5	-4.28571414948	0.	0.	0.	0.
0.5	-4.5	-3.57142853737	0.	0.	0.	0.
0.5	-4.5	-2.85714292526	0.	0.	0.	0.
0.5	-4.5	-2.14285707474	0.	0.	0.	0.
0.5	-4.5	-1.42857146263	0.	0.	0.	0.
0.5	-4.5	-0.71428591013	0.	0.	0.	0.
0.5	-4.5	0.0	0.	0.	0.	0.
0.0	-5.0	-5.0	0.	0.	0.	0.
0.0	-5.0	-4.28571414948	0.	0.	0.	0.
0.0	-5.0	-3.57142853737	0.	0.	0.	0.
0.0	-5.0	-2.85714292526	0.	0.	0.	0.
0.0	-5.0	-2.14285707474	0.	0.	0.	0.
0.0	-5.0	-1.42857146263	0.	0.	0.	0.
0.0	-5.0	-0.71428591013	0.	0.	0.	0.
0.0	-5.0	0.0	0.	0.	0.	0.
5.0	0.0	-5.0	0.	0.	0.	0.
4.5	-0.5	-5.0	0.	0.	0.	0.
4.0	-1.0	-5.0	0.	0.	0.	0.
3.5	-1.5	-5.0	0.	0.	0.	0.
3.0	-2.0	-5.0	0.	0.	0.	0.
2.5	-2.5	-5.0	0.	0.	0.	0.
2.0	-3.0	-5.0	0.	0.	0.	0.
1.5	-3.5	-5.0	0.	0.	0.	0.
1.0	-4.0	-5.0	0.	0.	0.	0.
0.5	-4.5	-5.0	0.	0.	0.	0.
0.0	-5.0	-5.0	0.	0.	0.	0.
4.28571414948	0.0	-5.0	0.	0.	0.	0.
3.85714268684	-0.5	-5.0	0.	0.	0.	0.
3.42857122421	-1.0	-5.0	0.	0.	0.	0.
3.0	-1.5	-5.0	0.	0.	0.	0.
2.57142853737	-2.0	-5.0	0.	0.	0.	0.
2.14285707474	-2.5	-5.0	0.	0.	0.	0.
1.71428561211	-3.0	-5.0	0.	0.	0.	0.
1.28571414948	-3.5	-5.0	0.	0.	0.	0.
0.857142925262	-4.0	-5.0	0.	0.	0.	0.
0.428571492434	-4.5	-5.0	0.	0.	0.	0.
0.0	-5.0	-5.0	0.	0.	0.	0.
3.57142853737	0.0	-5.0	0.	0.	0.	0.
3.21428561211	-0.5	-5.0	0.	0.	0.	0.
2.85714292526	-1.0	-5.0	0.	0.	0.	0.
2.5	-1.5	-5.0	0.	0.	0.	0.
2.14285707474	-2.0	-5.0	0.	0.	0.	0.
1.78571414948	-2.5	-5.0	0.	0.	0.	0.
1.42857146263	-3.0	-5.0	0.	0.	0.	0.
1.07142853737	-3.5	-5.0	0.	0.	0.	0.
0.714285612106	-4.0	-5.0	0.	0.	0.	0.
0.35714289546	-4.5	-5.0	0.	0.	0.	0.
-2.00000002337e-07	-5.0	-5.0	0.	0.	0.	0.
2.85714292526	0.0	-5.0	0.	0.	0.	0.
2.57142853737	-0.5	-5.0	0.	0.	0.	0.
2.28571438789	-1.0	-5.0	0.	0.	0.	0.
2.0	-1.5	-5.0	0.	0.	0.	0.
1.71428573132	-2.0	-5.0	0.	0.	0.	0.
1.42857146263	-2.5	-5.0	0.	0.	0.	0.
1.14285731316	-3.0	-5.0	0.	0.	0.	0.
0.857142925262	-3.5	-5.0	0.	0.	0.	0.
0.571428477764	-4.0	-5.0	0.	0.	0.	0.
0.28571408987	-4.5	-5.0	0.	0.	0.	0.
0.0	-5.0	-5.0	0.	0.	0.	0.
2.14285707474	0.0	-5.0	0.	0.	0.	0.
1.92857134342	-0.5	-5.0	0.	0.	0.	0.
1.71428561211	-1.0	-5.0	0.	0.	0.	0.
1.5	-1.5	-5.0	0.	0.	0.	0.
1.28571426868	-2.0	-5.0	0.	0.	0.	0.
1.07142853737	-2.5	-5.0	0.	0.	0.	0.
0.857142806053	-3.0	-5.0	0.	0.	0.	0.
0.642857074738	-3.5	-5.0	0.	0.	0.	0.
0.428571492434	-4.0	-5.0	0.	0.	0.	0.
0.214285701513	-4.5	-5.0	0.	0.	0.	0.
0.0	-5.0	-5.0	0.	0.	0.	0.
1.42857146263	0.0	-5.0	0.	0.	0.	0.
1.28571426868	-0.5	-5.0	0.	0.	0.	0.
1.14285719395	-1.0	-5.0	0.	0.	0.	0.
1.0	-1.5	-5.0	0.	0.	0.	0.
0.857142925262	-2.0	-5.0	0.	0.	0.	0.
0.714285671711	-2.5	-5.0	0.	0.	0.	0.
0.571428716183	-3.0	-5.0	0.	0.	0.	0.
0.428571492434	-3.5	-5.0	0.	0.	0.	0.
0.285714298487	-4.0	-5.0	0.	0.	0.	0.
0.14285710454	-4.5	-5.0	0.	0.	0.	0.
0.0	-5.0	-5.0	0.	0.	0.	0.
0.71428591013	0.0	-5.0	0.	0.	0.	0.
0.642857313156	-0.5	-5.0	0.	0.	0.	0.
0.571428716183	-1.0	-5.0	0.	0.	0.	0.
0.500000119209	-1.5	-5.0	0.	0.	0.	0.
0.428571492434	-2.0	-5.0	0.	0.	0.	0.
0.35714289546	-2.5	-5.0	0.	0.	0.	0.
0.285714298487	-3.0	-5.0	0.	0.	0.	0.
0.214285701513	-3.5	-5.0	0.	0.	0.	0.
0.142857193947	-4.0	-5.0	0.	0.	0.	0.
0.0714285969734	-4.5	-5.0	0.	0.	0.	0.
0.0	-5.0	-5.0	0.	0.	0.	0.
0.0	0.0	-5.0	0.	0.	0.	0.
0.0	-0.5	-5.0	0.	0.	0.	0.
0.0	-1.0	-5.0	0.	0.	0.	0.
0.0	-1.5	-5.0	0.	0.	0.	0.
0.0	-2.0	-5.0	0.	0.	0.	0.
0.0	-2.5	-5.0	0.	0.	0.	0.
0.0	-3.0	-5.0	0.	0.	0.	0.
0.0	-3.5	-5.0	0.	0.	0.	0.
0.0	-4.0	-5.0	0.	0.	0.	0.
0.0	-4.5	-5.0	0.	0.	0.	0.
0.0	-5.0	-5.0	0.	0.	0.	0.
-0.71428591013	0.0	-5.0	0.	0.	0.	0.
-0.642857313156	-0.5	-5.0	0.	0.	0.	0.
-0.571428716183	-1.0	-5.0	0.	0.	0.	0.
-0.500000119209	-1.5	-5.0	0.	0.	0.	0.
-0.428571492434	-2.0	-5.0	0.	0.	0.	0.
-0.35714289546	-2.5	-5.0	0.	0.	0.	0.
-0.285714298487	-3.0	-5.0	0.	0.	0.	0.
-0.214285701513	-3.5	-5.0	0.	0.	0.	0.
-0.142857193947	-4.0	-5.0	0.	0.	0.	0.
-0.0714285969734	-4.5	-5.0	0.	0.	0.	0.
0.0	-5.0	-5.0	0.	0.	0.	0.
-1.42857122421	0.0	-5.0	0.	0.	0.	0.
-1.28571414948	-0.5	-5.0	0.	0.	0.	0.
-1.14285695553	-1.0	-5.0	0.	0.	0.	0.
-0.999999880791	-1.5	-5.0	0.	0.	0.	0.
-0.857142686844	-2.0	-5.0	0.	0.	0.	0.
-0.714285612106	-2.5	-5.0	0.	0.	0.	0.
-0.571428477764	-3.0	-5.0	0.	0.	0.	0.
-0.428571403027	-3.5	-5.0	0.	0.	0.	0.
-0.285714298487	-4.0	-5.0	0.	0.	0.	0.
-0.14285710454	-4.5	-5.0	0.	0.	0.	0.
0.0	-5.0	-5.0	0.	0.	0.	0.
-2.14285707474	0.0	-5.0	0.	0.	0.	0.
-1.92857134342	-0.5	-5.0	0.	0.	0.	0.
-1.71428561211	-1.0	-5.0	0.	0.	0.	0.
-1.5	-1.5	-5.0	0.	0.	0.	0.
-1.28571426868	-2.0	-5.0	0.	0.	0.	0.
-1.07142853737	-2.5	-5.0	0.	0.	0.	0.
-0.857142806053	-3.0	-5.0	0.	0.	0.	0.
-0.642857074738	-3.5	-5.0	0.	0.	0.	0.
-0.428571492434	-4.0	-5.0	0.	0.	0.	0.
-0.214285701513	-4.5	-5.0	0.	0.	0.	0.
0.0	-5.0	-5.0	0.	0.	0.	0.
-2.85714292526	0.0	-5.0	0.	0.	0.	0.
-2.57142853737	-0.5	-5.0	0.	0.	0.	0.
-2.28571438789	-1.0	-5.0	0.	0.	0.	0.
-2.0	-1.5	-5.0	0.	0.	0.	0.
-1.71428573132	-2.0	-5.0	0.	0.	0.	0.
-1.42857146263	-2.5	-5.0	0.	0.	0.	0.
-1.14285731316	-3.0	-5.0	0.	0.	0.	0.
-0.857142925262	-3.5	-5.0	0.	0.	0.	0.
-0.571428477764	-4.0	-5.0	0.	0.	0.	0.
-0.28571408987	-4.5	-5.0	0.	0.	0.	0.
0.0	-5.0	-5.0	0.	0.	0.	0.
-3.57142829895	0.0	-5.0	0.	0.	0.	0.
-3.21428537369	-0.5	-5.0	0.	0.	0.	0.
-2.85714268684	-1.0	-5.0	0.	0.	0.	0.
-2.49999976158	-1.5	-5.0	0.	0.	0.	0.
-2.14285707474	-2.0	-5.0	0.	0.	0.	0.
-1.78571414948	-2.5	-5.0	0.	0.	0.	0.
-1.42857122421	-3.0	-5.0	0.	0.	0.	0.
-1.07142853737	-3.5	-5.0	0.	0.	0.	0.
-0.714285612106	-4.0	-5.0	0.	0.	0.	0.
-0.35714289546	-4.5	-5.0	0.	0.	0.	0.
0.0	-5.0	-5.0	0.	0.	0.	0.
-4.28571414948	0.0	-5.0	0.	0.	0.	0.
-3.85714268684	-0.5	-5.0	0.	0.	0.	0.
-3.42857122421	-1.0	-5.0	0.	0.	0.	0.
-3.0	-1.5	-5.0	0.	0.	0.	0.
-2.57142853737	-2.0	-5.0	0.	0.	0.	0.
-2.14285707474	-2.5	-5.0	0.	0.	0.	0.
-1.71428561211	-3.0	-5.0	0.	0.	0.	0.
-1.28571414948	-3.5	-5.0	0.	0.	0.	0.
-0.857142925262	-4.0	-5.0	0.	0.	0.	0.
-0.428571492434	-4.5	-5.0	0.	0.	0.	0.
0.0	-5.0	-5.0	0.	0.	0.	0.
-5.0	0.0	-5.0	0.	0.	0.	0.
-4.5	-0.5	-5.0	0.	0.	0.	0.
-4.0	-1.0	-5.0	0.	0.	0.	0.
-3.5	-1.5	-5.0	0.	0.	0.	0.
-3.0	-2.0	-5.0	0.	0.	0.	0.
-2.5	-2.5	-5.0	0.	0.	0.	0.
-2.0	-3.0	-5.0	0.	0.	0.	0.
-1.5	-3.5	-5.0	0.	0.	0.	0.
-1.0	-4.0	-5.0	0.	0.	0.	0.
-0.5	-4.5	-5.0	0.	0.	0.	0.
0.0	-5.0	-5.0	0.	0.	0.	0.
105.0	-5.0	-5.0	0.	0.	0.	0.
105.0	-5.0	-4.28571414948	0.	0.	0.	0.
105.0	-5.0	-3.57142853737	0.	0.	0.	0.
105.0	-5.0	-2.85714292526	0.	0.	0.	0.
105.0	-5.0	-2.14285707474	0.	0.	0.	0.
105.0	-5.0	-1.42857146263	0.	0.	0.	0.
105.0	-5.0	-0.71428591013	0.	0.	0.	0.
105.0	-5.0	0.0	0.	0.	0.	0.
104.230766296	-5.0	-5.0	0.	0.	0.	0.
104.230766296	-5.0	-4.28571414948	0.	0.	0.	0.
104.230766296	-5.0	-3.57142853737	0.	0.	0.	0.
104.230766296	-5.0	-2.85714292526	0.	0.	0.	0.
104.230766296	-5.0	-2.14285707474	0.	0.	0.	0.
104.230766296	-5.0	-1.42857146263	0.	0.	0.	0.
104.230766296	-5.0	-0.71428591013	0.	0.	0.	0.
104.230766296	-5.0	0.0	0.	0.	0.	0.
103.461540222	-5.0	-5.0	0.	0.	0.	0.
103.461540222	-5.0	-4.28571414948	0.	0.	0.	0.
103.461540222	-5.0	-3.57142853737	0.	0.	0.	0.
103.461540222	-5.0	-2.85714292526	0.	0.	0.	0.
103.461540222	-5.0	-2.14285707474	0.	0.	0.	0.
103.461540222	-5.0	-1.42857146263	0.	0.	0.	0.
103.461540222	-5.0	-0.71428591013	0.	0.	0.	0.
103.461540222	-5.0	0.0	0.	0.	0.	0.
102.692306519	-5.0	-5.0	0.	0.	0.	0.
102.692306519	-5.0	-4.28571414948	0.	0.	0.	0.
102.692306519	-5.0	-3.57142853737	0.	0.	0.	0.
102.692306519	-5.0	-2.85714292526	0.	0.	0.	0.
102.692306519	-5.0	-2.14285707474	0.	0.	0.	0.
102.692306519	-5.0	-1.42857146263	0.	0.	0.	0.
102.692306519	-5.0	-0.71428591013	0.	0.	0.	0.
102.692306519	-5.0	0.0	0.	0.	0.	0.
101.923080444	-5.0	-5.0	0.	0.	0.	0.
101.923080444	-5.0	-4.28571414948	0.	0.	0.	0.
101.923080444	-5.0	-3.57142853737	0.	0.	0.	0.
101.923080444	-5.0	-2.85714292526	0.	0.	0.	0.
101.923080444	-5.0	-2.14285707474	0.	0.	0.	0.
101.923080444	-5.0	-1.42857146263	0.	0.	0.	0.
101.923080444	-5.0	-0.71428591013	0.	0.	0.	0.
101.923080444	-5.0	0.0	0.	0.	0.	0.
101.153846741	-5.0	-5.0	0.	0.	0.	0.
101.153846741	-5.0	-4.28571414948	0.	0.	0.	0.
101.153846741	-5.0	-3.57142853737	0.	0.	0.	0.
101.153846741	-5.0	-2.85714292526	0.	0.	0.	0.
101.153846741	-5.0	-2.14285707474	0.	0.	0.	0.
101.153846741	-5.0	-1.42857146263	0.	0.	0.	0.
101.153846741	-5.0	-0.71428591013	0.	0.	0.	0.
101.153846741	-5.0	0.0	0.	0.	0.	0.
100.384613037	-5.0	-5.0	0.	0.	0.	0.
100.384613037	-5.0	-4.28571414948	0.	0.	0.	0.
100.384613037	-5.0	-3.57142853737	0.	0.	0.	0.
100.384613037	-5.0	-2.85714292526	0.	0.	0.	0.
100.384613037	-5.0	-2.14285707474	0.	0.	0.	0.
100.384613037	-5.0	-1.42857146263	0.	0.	0.	0.
100.384613037	-5.0	-0.71428591013	0.	0.	0.	0.
100.384613037	-5.0	0.0	0.	0.	0.	0.
99.6153869629	-5.0	-5.0	0.	0.	0.	0.
99.6153869629	-5.0	-4.28571414948	0.	0.	0.	0.
99.6153869629	-5.0	-3.57142853737	0.	0.	0.	0.
99.6153869629	-5.0	-2.85714292526	0.	0.	0.	0.
99.6153869629	-5.0	-2.14285707474	0.	0.	0.	0.
99.6153869629	-5.0	-1.42857146263	0.	0.	0.	0.
99.6153869629	-5.0	-0.71428591013	0.	0.	0.	0.
99.6153869629	-5.0	0.0	0.	0.	0.	0.
98.8461532593	-5.0	-5.0	0.	0.	0.	0.
98.8461532593	-5.0	-4.28571414948	0.	0.	0.	0.
98.8461532593	-5.0	-3.57142853737	0.	0.	0.	0.
98.8461532593	-5.0	-2.85714292526	0.	0.	0.	0.
98.8461532593	-5.0	-2.14285707474	0.	0.	0.	0.
98.8461532593	-5.0	-1.42857146263	0.	0.	0.	0.
98.8461532593	-5.0	-0.71428591013	0.	0.	0.	0.
98.8461532593	-5.0	0.0	0.	0.	0.	0.
98.0769195557	-5.0	-5.0	0.	0.	0.	0.
98.0769195557	-5.0	-4.28571414948	0.	0.	0.	0.
98.0769195557	-5.0	-3.57142853737	0.	0.	0.	0.
98.0769195557	-5.0	-2.85714292526	0.	0.	0.	0.
98.0769195557	-5.0	-2.14285707474	0.	0.	0.	0.
98.0769195557	-5.0	-1.42857146263	0.	0.	0.	0.
98.0769195557	-5.0	-0.71428591013	0.	0.	0.	0.
98.0769195557	-5.0	0.0	0.	0.	0.	0.
97.3076934814	-5.0	-5.0	0.	0.	0.	0.
97.3076934814	-5.0	-4.28571414948	0.	0.	0.	0.
97.3076934814	-5.0	-3.57142853737	0.	0.	0.	0.
97.3076934814	-5.0	-2.85714292526	0.	0.	0.	0.
97.3076934814	-5.0	-2.14285707474	0.	0.	0.	0.
97.3076934814	-5.0	-1.42857146263	0.	0.	0.	0.
97.3076934814	-5.0	-0.71428591013	0.	0.	0.	0.
97.3076934814	-5.0	0.0	0.	0.	0.	0.
96.5384597778	-5.0	-5.0	0.	0.	0.	0.
96.5384597778	-5.0	-4.28571414948	0.	0.	0.	0.
96.5384597778	-5.0	-3.57142853737	0.	0.	0.	0.
96.5384597778	-5.0	-2.85714292526	0.	0.	0.	0.
96.5384597778	-5.0	-2.14285707474	0.	0.	0.	0.
96.5384597778	-5.0	-1.42857146263	0.	0.	0.	0.
96.5384597778	-5.0	-0.71428591013	0.	0.	0.	0.
96.5384597778	-5.0	0.0	0.	0.	0.	0.
95.7692337036	-5.0	-5.0	0.	0.	0.	0.
95.7692337036	-5.0	-4.28571414948	0.	0.	0.	0.
95.7692337036	-5.0	-3.57142853737	0.	0.	0.	0.
95.7692337036	-5.0	-2.85714292526	0.	0.	0.	0.
95.7692337036	-5.0	-2.14285707474	0.	0.	0.	0.
95.7692337036	-5.0	-1.42857146263	0.	0.	0.	0.
95.7692337036	-5.0	-0.71428591013	0.	0.	0.	0.
95.7692337036	-5.0	0.0	0.	0.	0.	0.
95.0	-5.0	-5.0	0.	0.	0.	0.
95.0	-5.0	-4.28571414948	0.	0.	0.	0.
95.0	-5.0	-3.57142853737	0.	0.	0.	0.
95.0	-5.0	-2.85714292526	0.	0.	0.	0.
95.0	-5.0	-2.14285707474	0.	0.	0.	0.
95.0	-5.0	-1.42857146263	0.	0.	0.	0.
95.0	-5.0	-0.71428591013	0.	0.	0.	0.
95.0	-5.0	0.0	0.	0.	0.	0.
95.0	-5.0	-5.0	0.	0.	0.	0.
95.0	-5.0	-4.28571414948	0.	0.	0.	0.
95.0	-5.0	-3.57142853737	0.	0.	0.	0.
95.0	-5.0	-2.85714292526	0.	0.	0.	0.
95.0	-5.0	-2.14285707474	0.	0.	0.	0.
95.0	-5.0	-1.42857146263	0.	0.	0.	0.
95.0	-5.0	-0.71428591013	0.	0.	0.	0.
95.0	-5.0	0.0	0.	0.	0.	0.
95.0	-4.28571414948	-5.0	0.	0.	0.	0.
95.0	-4.28571414948	-4.28571414948	0.	0.	0.	0.
95.0	-4.28571414948	-3.57142853737	0.	0.	0.	0.
95.0	-4.28571414948	-2.85714292526	0.	0.	0.	0.
95.0	-4.28571414948	-2.14285707474	0.	0.	0.	0.
95.0	-4.28571414948	-1.42857146263	0.	0.	0.	0.
95.0	-4.28571414948	-0.71428591013	0.	0.	0.	0.
95.0	-4.28571414948	0.0	0.	0.	0.	0.
95.0	-3.57142853737	-5.0	0.	0.	0.	0.
95.0	-3.57142853737	-4.28571414948	0.	0.	0.	0.
95.0	-3.57142853737	-3.57142853737	0.	0.	0.	0.
95.0	-3.57142853737	-2.85714292526	0.	0.	0.	0.
95.0	-3.57142853737	-2.14285707474	0.	0.	0.	0.
95.0	-3.57142853737	-1.42857146263	0.	0.	0.	0.
95.0	-3.57142853737	-0.71428591013	0.	0.	0.	0.
95.0	-3.57142853737	0.0	0.	0.	0.	0.
95.0	-2.85714292526	-5.0	0.	0.	0.	0.
95.0	-2.85714292526	-4.28571414948	0.	0.	0.	0.
95.0	-2.85714292526	-3.57142853737	0.	0.	0.	0.
95.0	-2.85714292526	-2.85714292526	0.	0.	0.	0.
95.0	-2.85714292526	-2.14285707474	0.	0.	0.	0.
95.0	-2.85714292526	-1.42857146263	0.	0.	0.	0.
95.0	-2.85714292526	-0.71428591013	0.	0.	0.	0.
95.0	-2.85714292526	0.0	0.	0.	0.	0.
95.0	-2.14285707474	-5.0	0.	0.	0.	0.
95.0	-2.14285707474	-4.28571414948	0.	0.	0.	0.
95.0	-2.14285707474	-3.57142853737	0.	0.	0.	0.
95.0	-2.14285707474	-2.85714292526	0.	0.	0.	0.
95.0	-2.14285707474	-2.14285707474	0.	0.	0.	0.
95.0	-2.14285707474	-1.42857146263	0.	0.	0.	0.
95.0	-2.14285707474	-0.71428591013	0.	0.	0.	0.
95.0	-2.14285707474	0.0	0.	0.	0.	0.
95.0	-1.42857146263	-5.0	0.	0.	0.	0.
95.0	-1.42857146263	-4.28571414948	0.	0.	0.	0.
95.0	-1.42857146263	-3.57142853737	0.	0.	0.	0.
95.0	-1.42857146263	-2.85714292526	0.	0.	0.	0.
95.0	-1.42857146263	-2.14285707474	0.	0.	0.	0.
95.0	-1.42857146263	-1.42857146263	0.	0.	0.	0.
95.0	-1.42857146263	-0.71428591013	0.	0.	0.	0.
95.0	-1.42857146263	0.0	0.	0.	0.	0.
95.0	-0.71428591013	-5.0	0.	0.	0.	0.
95.0	-0.71428591013	-4.28571414948	0.	0.	0.	0.
95.0	-0.71428591013	-3.57142853737	0.	0.	0.	0.
95.0	-0.71428591013	-2.85714292526	0.	0.	0.	0.
95.0	-0.71428591013	-2.14285707474	0.	0.	0.	0.
95.0	-0.71428591013	-1.42857146263	0.	0.	0.	0.
95.0	-0.71428591013	-0.71428591013	0.	0.	0.	0.
95.0	-0.71428591013	0.0	0.	0.	0.	0.
95.0	0.0	-5.0	0.	0.	0.	0.
95.0	0.0	-4.28571414948	0.	0.	0.	0.
95.0	0.0	-3.57142853737	0.	0.	0.	0.
95.0	0.0	-2.85714292526	0.	0.	0.	0.
95.0	0.0	-2.14285707474	0.	0.	0.	0.
95.0	0.0	-1.42857146263	0.	0.	0.	0.
95.0	0.0	-0.71428591013	0.	0.	0.	0.
95.0	0.0	0.0	0.	0.	0.	0.
105.0	0.0	0.0	0.	0.	0.	0.
105.0	-0.714285671711	0.0	0.	0.	0.	0.
105.0	-1.42857146263	0.0	0.	0.	0.	0.
105.0	-2.14285707474	0.0	0.	0.	0.	0.
105.0	-2.85714292526	0.0	0.	0.	0.	0.
105.0	-3.57142853737	0.0	0.	0.	0.	0.
105.0	-4.28571414948	0.0	0.	0.	0.	0.
105.0	-5.0	0.0	0.	0.	0.	0.
105.0	0.0	-0.714285671711	0.	0.	0.	0.
105.0	-0.714285671711	-0.714285671711	0.	0.	0.	0.
105.0	-1.42857146263	-0.714285671711	0.	0.	0.	0.
105.0	-2.14285707474	-0.714285671711	0.	0.	0.	0.
105.0	-2.85714292526	-0.714285671711	0.	0.	0.	0.
105.0	-3.57142853737	-0.714285671711	0.	0.	0.	0.
105.0	-4.28571414948	-0.714285671711	0.	0.	0.	0.
105.0	-5.0	-0.714285671711	0.	0.	0.	0.
105.0	0.0	-1.42857146263	0.	0.	0.	0.
105.0	-0.714285671711	-1.42857146263	0.	0.	0.	0.
105.0	-1.42857146263	-1.42857146263	0.	0.	0.	0.
105.0	-2.14285707474	-1.42857146263	0.	0.	0.	0.
105.0	-2.85714292526	-1.42857146263	0.	0.	0.	0.
105.0	-3.57142853737	-1.42857146263	0.	0.	0.	0.
105.0	-4.28571414948	-1.42857146263	0.	0.	0.	0.
105.0	-5.0	-1.42857146263	0.	0.	0.	0.
105.0	0.0	-2.14285707474	0.	0.	0.	0.
105.0	-0.714285671711	-2.14285707474	0.	0.	0.	0.
105.0	-1.42857146263	-2.14285707474	0.	0.	0.	0.
105.0	-2.14285707474	-2.14285707474	0.	0.	0.	0.
105.0	-2.85714292526	-2.14285707474	0.	0.	0.	0.
105.0	-3.57142853737	-2.14285707474	0.	0.	0.	0.
105.0	-4.28571414948	-2.14285707474	0.	0.	0.	0.
105.0	-5.0	-2.14285707474	0.	0.	0.	0.
105.0	0.0	-2.85714292526	0.	0.	0.	0.
105.0	-0.714285671711	-2.85714292526	0.	0.	0.	0.
105.0	-1.42857146263	-2.85714292526	0.	0.	0.	0.
105.0	-2.14285707474	-2.85714292526	0.	0.	0.	0.
105.0	-2.85714292526	-2.85714292526	0.	0.	0.	0.
105.0	-3.57142853737	-2.85714292526	0.	0.	0.	0.
105.0	-4.28571414948	-2.85714292526	0.	0.	0.	0.
105.0	-5.0	-2.85714292526	0.	0.	0.	0.
105.0	0.0	-3.57142853737	0.	0.	0.	0.
105.0	-0.714285671711	-3.57142853737	0.	0.	0.	0.
105.0	-1.42857146263	-3.57142853737	0.	0.	0.	0.
105.0	-2.14285707474	-3.57142853737	0.	0.	0.	0.
105.0	-2.85714292526	-3.57142853737	0.	0.	0.	0.
105.0	-3.57142853737	-3.57142853737	0.	0.	0.	0.
105.0	-4.28571414948	-3.57142853737	0.	0.	0.	0.
105.0	-5.0	-3.57142853737	0.	0.	0.	0.
105.0	0.0	-4.28571414948	0.	0.	0.	0.
105.0	-0.714285671711	-4.28571414948	0.	0.	0.	0.
105.0	-1.42857146263	-4.28571414948	0.	0.	0.	0.
105.0	-2.14285707474	-4.28571414948	0.	0.	0.	0.
105.0	-2.85714292526	-4.28571414948	0.	0.	0.	0.
105.0	-3.57142853737	-4.28571414948	0.	0.	0.	0.
105.0	-4.28571414948	-4.28571414948	0.	0.	0.	0.
105.0	-5.0	-4.28571414948	0.	0.	0.	0.
105.0	0.0	-5.0	0.	0.	0.	0.
105.0	-0.714285671711	-5.0	0.	0.	0.	0.
105.0	-1.42857146263	-5.0	0.	0.	0.	0.
105.0	-2.14285707474	-5.0	0.	0.	0.	0.
105.0	-2.85714292526	-5.0	0.	0.	0.	0.
105.0	-3.57142853737	-5.0	0.	0.	0.	0.
105.0	-4.28571414948	-5.0	0.	0.	0.	0.
105.0	-5.0	-5.0	0.	0.	0.	0.
105.0	0.0	-5.0	0.	0.	0.	0.
105.0	-0.714285671711	-5.0	0.	0.	0.	0.
105.0	-1.42857146263	-5.0	0.	0.	0.	0.
105.0	-2.14285707474	-5.0	0.	0.	0.	0.
105.0	-2.85714292526	-5.0	0.	0.	0.	0.
105.0	-3.57142853737	-5.0	0.	0.	0.	0.
105.0	-4.28571414948	-5.0	0.	0.	0.	0.
105.0	-5.0	-5.0	0.	0.	0.	0.
104.230766296	0.0	-5.0	0.	0.	0.	0.
104.230766296	-0.714285671711	-5.0	0.	0.	0.	0.
104.230766296	-1.42857146263	-5.0	0.	0.	0.	0.
104.230766296	-2.14285707474	-5.0	0.	0.	0.	0.
104.230766296	-2.85714292526	-5.0	0.	0.	0.	0.
104.230766296	-3.57142853737	-5.0	0.	0.	0.	0.
104.230766296	-4.28571414948	-5.0	0.	0.	0.	0.
104.230766296	-5.0	-5.0	0.	0.	0.	0.
103.461540222	0.0	-5.0	0.	0.	0.	0.
103.461540222	-0.714285671711	-5.0	0.	0.	0.	0.
103.461540222	-1.42857146263	-5.0	0.	0.	0.	0.
103.461540222	-2.14285707474	-5.0	0.	0.	0.	0.
103.461540222	-2.85714292526	-5.0	0.	0.	0.	0.
103.461540222	-3.57142853737	-5.0	0.	0.	0.	0.
103.461540222	-4.28571414948	-5.0	0.	0.	0.	0.
103.461540222	-5.0	-5.0	0.	0.	0.	0.
102.692306519	0.0	-5.0	0.	0.	0.	0.
102.692306519	-0.714285671711	-5.0	0.	0.	0.	0.
102.692306519	-1.42857146263	-5.0	0.	0.	0.	0.
102.692306519	-2.14285707474	-5.0	0.	0.	0.	0.
102.692306519	-2.85714292526	-5.0	0.	0.	0.	0.
102.692306519	-3.57142853737	-5.0	0.	0.	0.	0.
102.692306519	-4.28571414948	-5.0	0.	0.	0.	0.
102.692306519	-5.0	-5.0	0.	0.	0.	0.
101.923080444	0.0	-5.0	0.	0.	0.	0.
101.923080444	-0.714285671711	-5.0	0.	0.	0.	0.
101.923080444	-1.42857146263	-5.0	0.	0.	0.	0.
101.923080444	-2.14285707474	-5.0	0.	0.	0.	0.
101.923080444	-2.85714292526	-5.0	0.	0.	0.	0.
101.923080444	-3.57142853737	-5.0	0.	0.	0.	0.
101.923080444	-4.28571414948	-5.0	0.	0.	0.	0.
101.923080444	-5.0	-5.0	0.	0.	0.	0.
101.153846741	0.0	-5.0	0.	0.	0.	0.
101.153846741	-0.714285671711	-5.0	0.	0.	0.	0.
101.153846741	-1.42857146263	-5.0	0.	0.	0.	0.
101.153846741	-2.14285707474	-5.0	0.	0.	0.	0.
101.153846741	-2.85714292526	-5.0	0.	0.	0.	0.
101.153846741	-3.57142853737	-5.0	0.	0.	0.	0.
101.153846741	-4.28571414948	-5.0	0.	0.	0.	0.
101.153846741	-5.0	-5.0	0.	0.	0.	0.
100.384613037	0.0	-5.0	0.	0.	0.	0.
100.384613037	-0.714285671711	-5.0	0.	0.	0.	0.
100.384613037	-1.42857146263	-5.0	0.	0.	0.	0.
100.384613037	-2.14285707474	-5.0	0.	0.	0.	0.
100.384613037	-2.85714292526	-5.0	0.	0.	0.	0.
100.384613037	-3.57142853737	-5.0	0.	0.	0.	0.
100.384613037	-4.28571414948	-5.0	0.	0.	0.	0.
100.384613037	-5.0	-5.0	0.	0.	0.	0.
99.6153869629	0.0	-5.0	0.	0.	0.	0.
99.6153869629	-0.714285671711	-5.0	0.	0.	0.	0.
99.6153869629	-1.42857146263	-5.0	0.	0.	0.	0.
99.6153869629	-2.14285707474	-5.0	0.	0.	0.	0.
99.6153869629	-2.85714292526	-5.0	0.	0.	0.	0.
99.6153869629	-3.57142853737	-5.0	0.	0.	0.	0.
99.6153869629	-4.28571414948	-5.0	0.	0.	0.	0.
99.6153869629	-5.0	-5.0	0.	0.	0.	0.
98.8461532593	0.0	-5.0	0.	0.	0.	0.
98.8461532593	-0.714285671711	-5.0	0.	0.	0.	0.
98.8461532593	-1.42857146263	-5.0	0.	0.	0.	0.
98.8461532593	-2.14285707474	-5.0	0.	0.	0.	0.
98.8461532593	-2.85714292526	-5.0	0.	0.	0.	0.
98.8461532593	-3.57142853737	-5.0	0.	0.	0.	0.
98.8461532593	-4.28571414948	-5.0	0.	0.	0.	0.
98.8461532593	-5.0	-5.0	0.	0.	0.	0.
98.0769195557	0.0	-5.0	0.	0.	0.	0.
98.0769195557	-0.714285671711	-5.0	0.	0.	0.	0.
98.0769195557	-1.42857146263	-5.0	0.	0.	0.	0.
98.0769195557	-2.14285707474	-5.0	0.	0.	0.	0.
98.0769195557	-2.85714292526	-5.0	0.	0.	0.	0.
98.0769195557	-3.57142853737	-5.0	0.	0.	0.	0.
98.0769195557	-4.28571414948	-5.0	0.	0.	0.	0.
98.0769195557	-5.0	-5.0	0.	0.	0.	0.
97.3076934814	0.0	-5.0	0.	0.	0.	0.
97.3076934814	-0.714285671711	-5.0	0.	0.	0.	0.
97.3076934814	-1.42857146263	-5.0	0.	0.	0.	0.
97.3076934814	-2.14285707474	-5.0	0.	0.	0.	0.
97.3076934814	-2.85714292526	-5.0	0.	0.	0.	0.
97.3076934814	-3.57142853737	-5.0	0.	0.	0.	0.
97.3076934814	-4.28571414948	-5.0	0.	0.	0.	0.
97.3076934814	-5.0	-5.0	0.	0.	0.	0.
96.5384597778	0.0	-5.0	0.	0.	0.	0.
96.5384597778	-0.714285671711	-5.0	0.	0.	0.	0.
96.5384597778	-1.42857146263	-5.0	0.	0.	0.	0.
96.5384597778	-2.14285707474	-5.0	0.	0.	0.	0.
96.5384597778	-2.85714292526	-5.0	0.	0.	0.	0.
96.5384597778	-3.57142853737	-5.0	0.	0.	0.	0.
96.5384597778	-4.28571414948	-5.0	0.	0.	0.	0.
96.5384597778	-5.0	-5.0	0.	0.	0.	0.
95.7692337036	0.0	-5.0	0.	0.	0.	0.
95.7692337036	-0.714285671711	-5.0	0.	0.	0.	0.
95.7692337036	-1.42857146263	-5.0	0.	0.	0.	0.
95.7692337036	-2.14285707474	-5.0	0.	0.	0.	0.
95.7692337036	-2.85714292526	-5.0	0.	0.	0.	0.
95.7692337036	-3.57142853737	-5.0	0.	0.	0.	0.
95.7692337036	-4.28571414948	-5.0	0.	0.	0.	0.
95.7692337036	-5.0	-5.0	0.	0.	0.	0.
95.0	0.0	-5.0	0.	0.	0.	0.
95.0	-0.714285671711	-5.0	0.	0.	0.	0.
95.0	-1.42857146263	-5.0	0.	0.	0.	0.
95.0	-2.14285707474	-5.0	0.	0.	0.	0.
95.0	-2.85714292526	-5.0	0.	0.	0.	0.
95.0	-3.57142853737	-5.0	0.	0.	0.	0.
95.0	-4.28571414948	-5.0	0.	0.	0.	0.
95.0	-5.0	-5.0	0.	0.	0.	0.
1.0	2.0	10.0	9.0
2.0	3.0	11.0	10.0
3.0	4.0	12.0	11.0
4.0	5.0	13.0	12.0
5.0	6.0	14.0	13.0
6.0	7.0	15.0	14.0
7.0	8.0	16.0	15.0
9.0	10.0	18.0	17.0
10.0	11.0	19.0	18.0
11.0	12.0	20.0	19.0
12.0	13.0	21.0	20.0
13.0	14.0	22.0	21.0
14.0	15.0	23.0	22.0
15.0	16.0	24.0	23.0
17.0	18.0	26.0	25.0
18.0	19.0	27.0	26.0
19.0	20.0	28.0	27.0
20.0	21.0	29.0	28.0
21.0	22.0	30.0	29.0
22.0	23.0	31.0	30.0
23.0	24.0	32.0	31.0
25.0	26.0	34.0	33.0
26.0	27.0	35.0	34.0
27.0	28.0	36.0	35.0
28.0	29.0	37.0	36.0
29.0	30.0	38.0	37.0
30.0	31.0	39.0	38.0
31.0	32.0	40.0	39.0
33.0	34.0	42.0	41.0
34.0	35.0	43.0	42.0
35.0	36.0	44.0	43.0
36.0	37.0	45.0	44.0
37.0	38.0	46.0	45.0
38.0	39.0	47.0	46.0
39.0	40.0	48.0	47.0
41.0	42.0	50.0	49.0
42.0	43.0	51.0	50.0
43.0	44.0	52.0	51.0
44.0	45.0	53.0	52.0
45.0	46.0	54.0	53.0
46.0	47.0	55.0	54.0
47.0	48.0	56.0	55.0
49.0	50.0	58.0	57.0
50.0	51.0	59.0	58.0
51.0	52.0	60.0	59.0
52.0	53.0	61.0	60.0
53.0	54.0	62.0	61.0
54.0	55.0	63.0	62.0
55.0	56.0	64.0	63.0
57.0	58.0	66.0	65.0
58.0	59.0	67.0	66.0
59.0	60.0	68.0	67.0
60.0	61.0	69.0	68.0
61.0	62.0	70.0	69.0
62.0	63.0	71.0	70.0
63.0	64.0	72.0	71.0
65.0	66.0	74.0	73.0
66.0	67.0	75.0	74.0
67.0	68.0	76.0	75.0
68.0	69.0	77.0	76.0
69.0	70.0	78.0	77.0
70.0	71.0	79.0	78.0
71.0	72.0	80.0	79.0
73.0	74.0	82.0	81.0
74.0	75.0	83.0	82.0
75.0	76.0	84.0	83.0
76.0	77.0	85.0	84.0
77.0	78.0	86.0	85.0
78.0	79.0	87.0	86.0
79.0	80.0	88.0	87.0
89.0	90.0	98.0	97.0
90.0	91.0	99.0	98.0
91.0	92.0	100.0	99.0
92.0	93.0	101.0	100.0
93.0	94.0	102.0	101.0
94.0	95.0	103.0	102.0
95.0	96.0	104.0	103.0
97.0	98.0	106.0	105.0
98.0	99.0	107.0	106.0
99.0	100.0	108.0	107.0
100.0	101.0	109.0	108.0
101.0	102.0	110.0	109.0
102.0	103.0	111.0	110.0
103.0	104.0	112.0	111.0
105.0	106.0	114.0	113.0
106.0	107.0	115.0	114.0
107.0	108.0	116.0	115.0
108.0	109.0	117.0	116.0
109.0	110.0	118.0	117.0
110.0	111.0	119.0	118.0
111.0	112.0	120.0	119.0
113.0	114.0	122.0	121.0
114.0	115.0	123.0	122.0
115.0	116.0	124.0	123.0
116.0	117.0	125.0	124.0
117.0	118.0	126.0	125.0
118.0	119.0	127.0	126.0
119.0	120.0	128.0	127.0
121.0	122.0	130.0	129.0
122.0	123.0	131.0	130.0
123.0	124.0	132.0	131.0
124.0	125.0	133.0	132.0
125.0	126.0	134.0	133.0
126.0	127.0	135.0	134.0
127.0	128.0	136.0	135.0
129.0	130.0	138.0	137.0
130.0	131.0	139.0	138.0
131.0	132.0	140.0	139.0
132.0	133.0	141.0	140.0
133.0	134.0	142.0	141.0
134.0	135.0	143.0	142.0
135.0	136.0	144.0	143.0
137.0	138.0	146.0	145.0
138.0	139.0	147.0	146.0
139.0	140.0	148.0	147.0
140.0	141.0	149.0	148.0
141.0	142.0	150.0	149.0
142.0	143.0	151.0	150.0
143.0	144.0	152.0	151.0
145.0	146.0	154.0	153.0
146.0	147.0	155.0	154.0
147.0	148.0	156.0	155.0
148.0	149.0	157.0	156.0
149.0	150.0	158.0	157.0
150.0	151.0	159.0	158.0
151.0	152.0	160.0	159.0
153.0	154.0	162.0	161.0
154.0	155.0	163.0	162.0
155.0	156.0	164.0	163.0
156.0	157.0	165.0	164.0
157.0	158.0	166.0	165.0
158.0	159.0	167.0	166.0
159.0	160.0	168.0	167.0
161.0	162.0	170.0	169.0
162.0	163.0	171.0	170.0
163.0	164.0	172.0	171.0
164.0	165.0	173.0	172.0
165.0	166.0	174.0	173.0
166.0	167.0	175.0	174.0
167.0	168.0	176.0	175.0
177.0	178.0	189.0	188.0
178.0	179.0	190.0	189.0
179.0	180.0	191.0	190.0
180.0	181.0	192.0	191.0
181.0	182.0	193.0	192.0
182.0	183.0	194.0	193.0
183.0	184.0	195.0	194.0
184.0	185.0	196.0	195.0
185.0	186.0	197.0	196.0
186.0	187.0	198.0	197.0
188.0	189.0	200.0	199.0
189.0	190.0	201.0	200.0
190.0	191.0	202.0	201.0
191.0	192.0	203.0	202.0
192.0	193.0	204.0	203.0
193.0	194.0	205.0	204.0
194.0	195.0	206.0	205.0
195.0	196.0	207.0	206.0
196.0	197.0	208.0	207.0
197.0	198.0	209.0	208.0
199.0	200.0	211.0	210.0