VARIABLES="w (rad/s)"
"abs(F	1	1)" "angle(F	1	1)"
"abs(F	1	2)" "angle(F	1	2)"
"abs(F	1	3)" "angle(F	1	3)"
"abs(F	1	4)" "angle(F	1	4)"
"abs(F	1	5)" "angle(F	1	5)"
"abs(F	1	6)" "angle(F	1	6)"
"abs(F	2	1)" "angle(F	2	1)"
"abs(F	2	2)" "angle(F	2	2)"
"abs(F	2	3)" "angle(F	2	3)"
"abs(F	2	4)" "angle(F	2	4)"
"abs(F	2	5)" "angle(F	2	5)"
"abs(F	2	6)" "angle(F	2	6)"
Zone t="Diffraction force - beta = 45.0000012522 deg",I=  40,F=POINT
0.1	21640.7	-1.56937	21696.0	-1.57003	487115.0	-0.00208459	14471.1	1.57157	14430.9	-1.56936	0.531925	-0.0146017	41081.4	-1.06474	41079.5	-1.06409	971575.0	0.505028	52981.2	2.07749	9.71574e+07	-2.63602	4.10793e+06	-1.06409	
0.148718	32200.6	-1.5699	32332.2	-1.56953	483654.0	-0.00292889	21574.3	1.57204	21482.6	-1.56988	1.07068	0.0984374	61213.6	-0.815056	61213.6	-0.813843	961076.0	0.753013	78831.4	2.32775	9.61074e+07	-2.38776	6.12137e+06	-0.813841	
0.197436	42788.0	-1.57279	43014.3	-1.56918	478689.0	-0.00230656	28683.7	1.57243	28527.1	-1.57278	2.03972	0.0209778	81525.3	-0.561493	81537.8	-0.55969	947098.0	1.00397	104744.0	2.5819	9.47093e+07	-2.13652	8.15376e+06	-0.559693	
0.246154	53629.7	-1.57741	53836.7	-1.5691	471451.0	-0.000164962	35944.6	1.57249	35798.2	-1.57741	3.18484	0.00795325	102123.0	-0.302795	102132.0	-0.300274	929863.0	1.25921	130695.0	2.84132	9.29852e+07	-1.88097	1.02132e+07	-0.300275	
0.294872	64854.2	-1.58155	64748.6	-1.56932	461267.0	0.00201078	43207.6	1.57226	43266.4	-1.58158	4.62955	0.00448252	122969.0	-0.0374807	122958.0	-0.0341513	909535.0	1.52014	156740.0	3.10745	9.09516e+07	-1.61973	1.22958e+07	-0.0341508	
0.34359	76764.9	-1.58138	75952.0	-1.56963	448087.0	0.00138545	50753.4	1.57196	51284.6	-1.5814	6.39296	-0.00206221	144173.0	0.236038	144121.0	0.240271	886096.0	1.78822	182729.0	-2.90132	8.86064e+07	-1.35131	1.44121e+07	0.240272	
0.392308	89079.9	-1.57371	87381.5	-1.56961	433196.0	-0.00517161	58429.7	1.57198	59551.1	-1.57371	8.40966	0.00433289	165997.0	0.519597	165876.0	0.524717	860095.0	2.06515	209063.0	-2.61687	8.60045e+07	-1.07401	1.65876e+07	0.524715	
0.441026	101281.0	-1.55848	99120.9	-1.56877	418602.0	-0.0187347	66266.8	1.57282	67694.5	-1.55852	10.8024	0.0135664	188291.0	0.815107	188050.0	0.82113	831088.0	2.35246	235375.0	-2.32046	8.31012e+07	-0.786306	1.8805e+07	0.821128	
0.489744	112577.0	-1.54069	111272.0	-1.56676	406790.0	-0.0355385	74490.3	1.57484	75341.3	-1.5407	13.4961	0.0079053	211123.0	1.12453	210695.0	1.13163	800118.0	2.65232	261701.0	-2.00996	8.00009e+07	-0.486004	2.10695e+07	1.13163	
0.538462	122365.0	-1.53134	123727.0	-1.56363	397778.0	-0.0470735	82935.7	1.57796	82001.1	-1.53138	16.3391	-0.0139527	235102.0	1.4504	234334.0	1.45868	766691.0	2.96653	288457.0	-1.6829	7.66538e+07	-0.171294	2.34334e+07	1.45868	
0.587179	131466.0	-1.54351	136436.0	-1.56014	388770.0	-0.0443507	91597.2	1.58146	88240.9	-1.54351	20.814	-0.00959499	260219.0	1.79565	258873.0	1.8049	731684.0	-2.98546	315811.0	-1.33668	7.31473e+07	0.160464	2.58873e+07	1.8049	
0.635897	143072.0	-1.57905	149375.0	-1.55736	374006.0	-0.0263357	100337.0	1.58423	96074.0	-1.57903	24.8516	0.0124964	286255.0	2.16401	284083.0	2.17331	695450.0	-2.63375	342973.0	-0.968255	6.95164e+07	0.512789	2.84083e+07	2.17331	
0.684615	161555.0	-1.61142	163023.0	-1.55587	348972.0	-0.00735423	109708.0	1.5857	108686.0	-1.61131	28.5754	-0.0881487	313317.0	2.5591	310315.0	2.5673	656922.0	-2.25953	370368.0	-0.574268	6.56537e+07	0.887727	3.10314e+07	2.5673	
0.733333	186362.0	-1.59848	177808.0	-1.55459	316723.0	-0.0159029	120031.0	1.58698	125744.0	-1.59842	34.4777	0.0102891	341204.0	2.98326	337774.0	2.99019	617204.0	-1.85944	398484.0	-0.151331	6.16694e+07	1.28862	3.37774e+07	2.99019	
0.782051	207971.0	-1.53063	193713.0	-1.55026	290542.0	-0.0725827	131151.0	1.59131	140738.0	-1.53072	39.0118	0.00336687	370227.0	-2.84517	366517.0	-2.83734	576554.0	-1.43193	426976.0	0.304397	5.75893e+07	1.71705	3.66517e+07	-2.83734	
0.830769	214054.0	-1.45461	210368.0	-1.54023	283102.0	-0.137371	142786.0	1.6013	145229.0	-1.45495	46.5495	0.00550701	401675.0	-2.35501	396310.0	-2.34486	536473.0	-0.975773	455441.0	0.796864	5.35614e+07	2.17427	3.9631e+07	-2.34486	
0.879487	206762.0	-1.47453	226759.0	-1.52718	284255.0	-0.128273	154406.0	1.61435	140781.0	-1.47481	53.3966	0.0338065	435379.0	-1.81967	426650.0	-1.81243	498708.0	-0.48102	483888.0	1.32935	4.97595e+07	2.67022	4.2665e+07	-1.81243	
0.928205	225396.0	-1.61274	242947.0	-1.51755	263930.0	-0.0529165	166192.0	1.62399	154142.0	-1.61251	60.2724	-0.0242899	465805.0	-1.23521	456642.0	-1.23693	458631.0	0.0567364	510603.0	1.90498	4.57224e+07	-3.07391	4.56642e+07	-1.23693	
0.976923	285504.0	-1.60088	261231.0	-1.51017	217905.0	-0.0461536	179680.0	1.63127	196202.0	-1.60068	72.3411	-0.124846	491668.0	-0.615739	486291.0	-0.615496	416776.0	0.623755	535527.0	2.5265	4.15045e+07	-2.50551	4.86291e+07	-0.615499	
1.02564	315449.0	-1.40839	281623.0	-1.493	193787.0	-0.211678	195144.0	1.64837	218337.0	-1.40901	92.7981	0.0218828	525334.0	0.0407715	514864.0	0.0524084	382779.0	1.22246	559858.0	-3.0885	3.80646e+07	-1.90526	5.14864e+07	0.0524046	
1.07436	267113.0	-1.32942	299373.0	-1.46553	209878.0	-0.252017	208756.0	1.67584	186264.0	-1.33033	94.6508	0.127272	559992.0	0.771596	540147.0	0.766297	352063.0	1.8858	579395.0	-2.37409	3.49451e+07	-1.24038	5.40146e+07	0.766291	
1.12308	285276.0	-1.61054	313942.0	-1.44536	192557.0	-0.101801	220283.0	1.6958	200148.0	-1.60999	93.9971	0.0497801	569538.0	1.54185	561109.0	1.52586	313659.0	2.58442	593097.0	-1.6143	3.10662e+07	-0.540458	5.61109e+07	1.52585	
1.17179	394053.0	-1.48168	331232.0	-1.42686	141713.0	-0.159382	234514.0	1.71402	278535.0	-1.48203	136.757	-0.110731	593446.0	2.31991	577198.0	2.32857	286748.0	-2.99239	602682.0	-0.811323	2.83288e+07	0.167233	5.77199e+07	2.32856	
1.22051	350157.0	-1.17783	346865.0	-1.39167	149256.0	-0.398541	248300.0	1.7493	250400.0	-1.18001	155.054	0.189148	619402.0	-3.07836	587718.0	-3.11256	263370.0	-2.19089	606608.0	0.0319351	2.59363e+07	0.969775	5.8772e+07	-3.11257	
1.26923	290992.0	-1.49909	354641.0	-1.36263	151708.0	-0.219136	256764.0	1.77818	210915.0	-1.49874	122.922	0.143125	594917.0	-2.1941	591948.0	-2.2336	228750.0	-1.37795	603955.0	0.911718	2.24618e+07	1.78324	5.91951e+07	-2.2336	
1.31795	440016.0	-1.42844	363716.0	-1.34074	104359.0	-0.221497	266333.0	1.79958	321534.0	-1.4289	189.859	-0.226315	615524.0	-1.28981	590891.0	-1.31969	210229.0	-0.545647	595109.0	1.82612	2.05688e+07	2.61627	5.90895e+07	-1.31969	
1.36667	362389.0	-1.07386	368499.0	-1.30555	112654.0	-0.505228	273695.0	1.83458	268851.0	-1.07766	214.681	0.280773	581802.0	-0.279474	584630.0	-0.373166	183054.0	0.377509	583759.0	2.77342	1.78459e+07	-2.74441	5.84636e+07	-0.373167	
1.41538	319415.0	-1.48477	366699.0	-1.28335	108729.0	-0.287559	276341.0	1.85661	241049.0	-1.48409	151.66	-0.1158	555341.0	0.640364	574678.0	0.604178	159715.0	1.24916	568556.0	-2.5309	1.5522e+07	-1.87244	5.74683e+07	0.604184	
1.4641	448973.0	-1.24162	365281.0	-1.26362	74035.9	-0.443697	279628.0	1.87599	342692.0	-1.24327	280.721	-0.0342503	540207.0	1.69441	561158.0	1.61168	141473.0	2.23081	550296.0	-1.52277	1.36918e+07	-0.891416	5.61162e+07	1.6117	
1.51282	297530.0	-1.09345	357563.0	-1.24325	87451.1	-0.552568	277937.0	1.89573	231612.0	-1.09875	205.877	0.415533	488919.0	2.65623	545017.0	2.64942	118524.0	-3.1369	529065.0	-0.485837	1.14369e+07	0.0238123	5.45015e+07	2.64944	
1.56154	377860.0	-1.42731	348148.0	-1.2364	67823.2	-0.373176	275736.0	1.90241	298828.0	-1.42709	269.438	-0.0636466	493810.0	-2.5694	526577.0	-2.56658	108822.0	-2.13725	508347.0	0.581485	1.04516e+07	1.02306	5.26566e+07	-2.56655	
1.61026	360524.0	-1.05298	337018.0	-1.22898	59750.0	-0.689949	272027.0	1.90973	290166.0	-1.05806	315.485	0.38181	457761.0	-1.539	506928.0	-1.46987	92845.0	-1.15194	486803.0	1.67815	8.88248e+06	2.00807	5.06903e+07	-1.46984	
1.65897	276144.0	-1.37635	322866.0	-1.23329	60733.3	-0.548352	265546.0	1.90484	227799.0	-1.37743	234.585	0.0536767	479447.0	-0.433172	486281.0	-0.343275	88422.1	-0.0934014	464359.0	2.80303	8.41305e+06	3.06643	4.86243e+07	-0.343277	
1.70769	367096.0	-1.21414	309289.0	-1.24212	42673.9	-0.682476	259606.0	1.89568	306941.0	-1.2176	413.149	0.316161	460232.0	0.711532	464927.0	0.812472	78097.1	0.994298	442190.0	-2.32745	7.39206e+06	-2.13033	4.64884e+07	0.812419	
1.75641	230350.0	-1.1756	292881.0	-1.25876	48559.2	-0.770319	250832.0	1.87844	198105.0	-1.18275	148.269	0.625235	481847.0	1.91288	443886.0	1.99839	73073.2	2.15241	420605.0	-1.14616	6.86165e+06	-0.972544	4.43853e+07	1.99826	
1.80513	336768.0	-1.38387	278580.0	-1.28436	33145.5	-0.680613	244073.0	1.85322	293745.0	-1.38508	580.98	0.214904	455163.0	-3.11272	423811.0	-3.06747	63639.6	-2.9391	401777.0	0.0681064	5.93684e+06	0.215896	4.23814e+07	-3.06766	
1.85385	208740.0	-1.08961	261423.0	-1.31407	36964.6	-0.940475	234230.0	1.82394	187689.0	-1.10131	199.944	2.32834	461192.0	-1.80599	404902.0	-1.815	57630.1	-1.68613	384195.0	1.3162	5.32245e+06	1.46595	4.04959e+07	-1.81519	
1.90256	302190.0	-1.50417	248047.0	-1.35594	25864.5	-0.76288	227373.0	1.78185	275368.0	-1.50349	925.062	0.188119	415353.0	-0.47677	385850.0	-0.523351	49082.8	-0.443402	366934.0	2.6009	4.51055e+06	2.70197	3.85958e+07	-0.523437	
1.95128	180254.0	-1.18169	230777.0	-1.40101	28471.0	-1.08023	216508.0	1.73746	170083.0	-1.1935	703.159	-3.14132	393611.0	0.927319	364606.0	0.807717	41356.5	0.880143	348446.0	-2.35946	3.75799e+06	-2.2657	3.64729e+07	0.807846	
2.0	270659.0	-1.57855	219240.0	-1.45729	19301.4	-0.915986	210651.0	1.68148	258350.0	-1.57828	1605.17	0.441644	338428.0	2.28161	339620.0	2.17666	32364.2	2.1448	326926.0	-1.00107	2.91547e+06	-1.00962	3.39693e+07	2.17704	
