VARIABLES="w (rad/s)"
"A	1	1" "B	1	1"
"A	1	2" "B	1	2"
"A	1	3" "B	1	3"
"A	1	4" "B	1	4"
"A	1	5" "B	1	5"
"A	1	6" "B	1	6"
Zone t="Motion of body	1	in DoF	1",I=	1,F=POINT
0.1	4.12809e+08	-408766.0	-4.34653e+09	743110.0	-1.28804e+09	-2.48825e+06	-1.42362e+10	-832300.0	2.70914e+09	8.8971e+06	-1.43736e+10	4.32016e+06	
Zone t="Motion of body	1	in DoF	2",I=	1,F=POINT
0.1	4.52399e+09	-275507.0	-6.26989e+08	-71660.0	2.60763e+09	5.04849e+06	2.90767e+09	8.96271e+06	-2.14981e+10	-1.51322e+07	-9.99953e+09	-827484.0	
Zone t="Motion of body	1	in DoF	3",I=	1,F=POINT
0.1	3.6933e+09	-220618.0	-6.27113e+09	344180.0	-6.44447e+07	-42412.6	-1.61152e+10	1.52228e+06	-9.44069e+09	165958.0	-2.72219e+10	2.79688e+06	
Zone t="Motion of body	1	in DoF	4",I=	1,F=POINT
0.1	4.32235e+08	-410117.0	-4.43473e+09	742450.0	-1.28818e+09	-2.48803e+06	-1.44335e+10	-837372.0	2.6833e+09	8.89599e+06	-1.47104e+10	4.32242e+06	
Zone t="Motion of body	1	in DoF	5",I=	1,F=POINT
0.1	4.61084e+09	-276275.0	-6.47891e+08	-72030.7	2.60725e+09	5.04862e+06	2.87337e+09	8.95986e+06	-2.16891e+10	-1.51329e+07	-1.01946e+10	-826149.0	
Zone t="Motion of body	1	in DoF	6",I=	1,F=POINT
0.1	3.69202e+09	-220700.0	-6.27291e+09	344180.0	-6.44687e+07	-42402.1	-1.61203e+10	1.5222e+06	-9.43713e+09	166030.0	-2.72274e+10	2.79716e+06	
