VARIABLES="w (rad/s)"
"abs(F	1	1)" "angle(F	1	1)"
"abs(F	1	2)" "angle(F	1	2)"
"abs(F	1	3)" "angle(F	1	3)"
"abs(F	1	4)" "angle(F	1	4)"
"abs(F	1	5)" "angle(F	1	5)"
"abs(F	1	6)" "angle(F	1	6)"
Zone t="Diffraction force - beta = 0.0 deg",I=1,F=POINT
0.1	4974.48	-3.13821	0.0979904	2.23505	485524.0	-1.5674	809207.0	-1.56574	1.61856e+06	1.56051	8282.76	0.00509812	
