VARIABLES="w (rad/s)"
"A	1	1" "B	1	1"
"A	1	2" "B	1	2"
"A	1	3" "B	1	3"
"A	1	4" "B	1	4"
"A	1	5" "B	1	5"
"A	1	6" "B	1	6"
Zone t="Motion of body	1	in DoF	1",I=	1,F=POINT
0.1	-10.8031	1.15775e-05	6.0789	-1.10316e-05	4.74001	6.61011e-08	94.4769	-0.000122329	63.4542	-9.9486e-05	73.3923	-6.8438e-05	
Zone t="Motion of body	1	in DoF	2",I=	1,F=POINT
0.1	5.80824	-8.93506e-06	-7.68175	8.455e-06	1.16645	-5.0773e-07	-57.9114	8.34211e-05	-75.1984	8.78384e-05	-1.68831	4.29924e-05	
Zone t="Motion of body	1	in DoF	3",I=	1,F=POINT
0.1	0.930204	9.50994e-07	-0.111887	4.52349e-09	2.50571	2.06644e-06	2.11378	5.74288e-06	-11.6905	-1.14167e-05	-2.54817	1.36619e-06	
Zone t="Motion of body	1	in DoF	4",I=	1,F=POINT
0.1	119.061	-9.4399e-05	-22.6144	8.71966e-05	1.21818	1.55956e-05	183.172	0.00107645	-1350.97	0.00066579	153.278	0.000679948	
Zone t="Motion of body	1	in DoF	5",I=	1,F=POINT
0.1	26.5093	-9.58837e-05	-106.155	7.15874e-05	5.3784	-1.84925e-05	-1276.25	0.000555684	152.418	0.0010709	-802.652	0.000135354	
Zone t="Motion of body	1	in DoF	6",I=	1,F=POINT
0.1	73.7763	-5.28431e-05	-2.83648	5.69063e-05	-12.1241	7.83491e-06	113.485	0.000730851	-832.124	0.000345894	432.302	0.000498466	
