VARIABLES="w (rad/s)"
"abs(F	1	1)" "angle(F	1	1)"
"abs(F	1	2)" "angle(F	1	2)"
"abs(F	1	3)" "angle(F	1	3)"
"abs(F	1	4)" "angle(F	1	4)"
"abs(F	1	5)" "angle(F	1	5)"
"abs(F	1	6)" "angle(F	1	6)"
"abs(F	2	1)" "angle(F	2	1)"
"abs(F	2	2)" "angle(F	2	2)"
"abs(F	2	3)" "angle(F	2	3)"
"abs(F	2	4)" "angle(F	2	4)"
"abs(F	2	5)" "angle(F	2	5)"
"abs(F	2	6)" "angle(F	2	6)"
Zone t="Diffraction force - beta = 45.0000012522 deg",I=	40,F=POINT
0.1	9248.13	-1.56745	9303.5	-1.569	1532.59	-2.41736	4194.1	1.57346	4172.21	-1.56584	0.516293	-0.0139797	16299.0	-1.06549	16297.0	-1.06383	5064.77	-2.34075	11928.6	2.07808	503124.0	0.778176	1.6297e+06	-1.06383	
0.148718	13749.0	-1.5687	13880.6	-1.56785	2372.56	-2.50176	6270.37	1.57516	6205.96	-1.56762	1.08125	0.0963375	24319.1	-0.816127	24319.2	-0.81307	10349.2	-2.06075	17787.2	2.32949	1.02935e+06	1.0645	2.43192e+06	-0.813069	
0.197436	18251.4	-1.57548	18477.6	-1.56702	3297.2	-2.80013	8328.57	1.57638	8208.2	-1.57771	2.02421	0.0235514	32472.6	-0.562681	32484.9	-0.558153	17112.1	-1.78608	23718.6	2.58538	1.70326e+06	1.34245	3.24849e+06	-0.558153	
0.246154	22973.8	-1.58624	23179.3	-1.56686	5538.36	-3.12755	10505.0	1.57659	10405.4	-1.59355	3.19272	0.0103042	40849.1	-0.303996	40858.1	-0.297698	25154.3	-1.51051	29700.4	2.84716	2.50497e+06	1.62003	4.08581e+06	-0.297698	
0.294872	28034.8	-1.59569	27924.4	-1.56738	9926.15	3.04802	12640.5	1.57583	12758.9	-1.60736	4.61491	0.00513157	49392.6	-0.0385039	49381.6	-0.0302124	34329.3	-1.23161	35788.1	3.11637	3.41986e+06	1.90026	4.93816e+06	-0.0302124	
0.34359	33721.8	-1.5949	32903.5	-1.5681	16213.0	3.10329	15004.7	1.57473	15604.6	-1.60565	6.40272	-0.00194467	58192.7	0.23545	58141.8	0.245943	44679.0	-0.947819	41832.0	-2.8884	4.45223e+06	2.18507	5.81418e+06	0.245943	
0.392308	39737.4	-1.57733	38038.6	-1.56808	23341.2	-3.04546	17433.3	1.57475	18626.0	-1.58012	8.39204	0.00326557	67489.7	0.519932	67371.9	0.532537	55689.8	-0.654893	48230.0	-2.59903	5.55053e+06	2.47867	6.73719e+06	0.532536	
0.441026	45569.1	-1.54341	43399.4	-1.56617	30088.4	-2.87792	19943.0	1.57752	21460.5	-1.53205	10.825	0.0139103	77109.9	0.816908	76875.7	0.831647	67883.7	-0.351809	54612.0	-2.29638	6.76721e+06	2.78232	7.68757e+06	0.831646	
0.489744	50439.1	-1.50357	49072.8	-1.56164	34424.2	-2.70829	22744.7	1.58403	23755.8	-1.4752	13.4795	0.00760714	87097.3	1.12819	86681.8	1.14548	80262.4	-0.034105	61011.1	-1.97809	8.00231e+06	3.10042	8.66818e+06	1.14548	
0.538462	53690.7	-1.48078	54935.2	-1.55466	35118.7	-2.57946	25657.8	1.59395	24959.9	-1.44098	16.3754	-0.0148313	98031.5	1.45663	97287.0	1.47664	93447.1	0.299455	67841.3	-1.6414	9.31784e+06	-2.84891	9.72871e+06	1.47664	
0.587179	56005.2	-1.50671	60918.5	-1.54692	32081.8	-2.5744	28658.6	1.60487	25475.0	-1.47614	20.7956	-0.0102492	109881.0	1.80566	108573.0	1.82784	106618.0	0.652145	75272.2	-1.28362	1.06318e+07	-2.49608	1.08573e+07	1.82784	
0.635897	60667.1	-1.59027	66979.8	-1.54083	30750.3	-2.81557	31587.2	1.61346	27423.0	-1.59964	24.8144	0.0123085	122405.0	2.18021	120293.0	2.20247	119222.0	1.02228	82525.8	-0.900503	1.189e+07	-2.12591	1.20292e+07	2.20247	
0.684615	72250.8	-1.66174	73575.2	-1.53771	40910.0	-3.07882	34971.4	1.61758	34236.0	-1.69974	28.5561	-0.0878567	135705.0	2.5845	132783.0	2.60425	132557.0	1.41318	90056.7	-0.488056	1.32225e+07	-1.735	1.32783e+07	2.60425	
0.733333	89721.4	-1.62833	81118.3	-1.53527	59403.6	-3.0567	39111.2	1.62046	45002.4	-1.64804	34.4708	0.0103478	149583.0	3.01957	146252.0	3.03643	145636.0	1.83027	98403.9	-0.0431561	1.45305e+07	-1.31796	1.46252e+07	3.03643	
0.782051	103972.0	-1.49039	89593.4	-1.52639	74588.6	-2.85521	43849.1	1.63218	53696.4	-1.46558	39.0002	0.00390624	164339.0	-2.79871	160782.0	-2.77981	158836.0	2.28193	107326.0	0.439285	1.58503e+07	-0.866351	1.60782e+07	-2.77981	
0.830769	103795.0	-1.32938	98653.0	-1.50558	76386.5	-2.60929	48920.6	1.65995	53121.8	-1.24927	46.5514	0.00497185	181308.0	-2.29782	176213.0	-2.27327	171546.0	2.77803	116607.0	0.96488	1.71203e+07	-0.37039	1.76213e+07	-2.27327	
0.879487	88380.3	-1.34399	107311.0	-1.47853	60882.9	-2.50153	53810.0	1.69606	41650.6	-1.24091	53.3914	0.0341758	200596.0	-1.74365	192149.0	-1.72415	180352.0	-2.97598	126497.0	1.53636	1.80034e+07	0.158303	1.92149e+07	-1.72415	
0.928205	97920.8	-1.66747	115594.0	-1.45871	53235.0	-2.87626	58636.0	1.72206	46611.0	-1.70916	60.2705	-0.0243312	217081.0	-1.1296	207882.0	-1.12871	188700.0	-2.42699	135690.0	2.15969	1.88506e+07	0.706948	2.07881e+07	-1.12871	
0.976923	149694.0	-1.6282	125824.0	-1.44467	81864.3	-3.01847	64927.6	1.73885	81140.1	-1.64312	72.335	-0.124605	229022.0	-0.487113	223701.0	-0.4835	200608.0	-1.82497	144712.0	2.83862	2.00522e+07	1.30915	2.23701e+07	-0.483502	
1.02564	174698.0	-1.27452	138303.0	-1.41188	101851.0	-2.73035	73247.5	1.77876	99198.1	-1.20837	92.7911	0.0218213	248621.0	0.180186	239160.0	0.211109	208188.0	-1.14881	155200.0	-2.71511	2.08098e+07	1.98493	2.3916e+07	0.211107	
1.07436	124480.0	-1.0322	148572.0	-1.35747	82290.9	-2.45232	80059.0	1.84772	67191.3	-0.849724	94.6633	0.127162	272400.0	0.951791	252350.0	0.954742	206873.0	-0.454877	163654.0	-1.92975	2.06995e+07	2.67782	2.5235e+07	0.954738	
1.12308	124824.0	-1.66172	155766.0	-1.3159	62402.8	-2.82263	84729.6	1.9009	62242.0	-1.69714	93.986	0.0497079	272905.0	1.77373	262648.0	1.74792	212074.0	0.259012	169770.0	-1.08759	2.12525e+07	-2.8909	2.62648e+07	1.74791	
1.17179	226422.0	-1.41528	165953.0	-1.28044	97798.2	-2.90954	92145.2	1.94256	133638.0	-1.38496	136.761	-0.11072	284237.0	2.55499	269708.0	2.58708	216383.0	1.077	175354.0	-0.198364	2.16796e+07	-2.07299	2.69709e+07	2.58707	
1.22051	198880.0	-0.830902	175940.0	-1.21189	100482.0	-2.52722	100461.0	2.02513	122958.0	-0.682959	155.034	0.189182	309109.0	-2.78041	272758.0	-2.81635	205749.0	1.8966	179000.0	0.73703	2.0659e+07	-1.25477	2.72759e+07	-2.81636	
1.26923	108273.0	-1.37705	178708.0	-1.14821	65433.1	-2.61335	103910.0	2.10456	51032.3	-1.26865	122.893	0.142713	282001.0	-1.82211	271074.0	-1.89788	207196.0	2.726	179461.0	1.71686	2.08388e+07	-0.423272	2.71077e+07	-1.89789	
1.31795	252465.0	-1.32094	183059.0	-1.1006	91056.0	-2.88707	108423.0	2.16168	155884.0	-1.2748	189.869	-0.226318	295095.0	-0.915866	265557.0	-0.943456	202261.0	-2.62389	177125.0	2.74162	2.0346e+07	0.509348	2.65561e+07	-0.943463	
1.36667	211053.0	-0.611869	185432.0	-1.02284	94468.6	-2.52632	112962.0	2.25457	140838.0	-0.442511	214.681	0.280886	278090.0	0.232096	256033.0	0.0442801	191838.0	-1.72633	174142.0	-2.48651	1.93664e+07	1.40872	2.5604e+07	0.044279	
1.41538	118374.0	-1.33681	181329.0	-0.960245	65464.6	-2.65112	112727.0	2.33388	60353.9	-1.21763	151.652	-0.115722	236351.0	1.17452	243628.0	1.06129	192611.0	-0.747556	169414.0	-1.39337	1.94209e+07	2.38957	2.43637e+07	1.0613	
1.4641	260833.0	-0.980705	178355.0	-0.902979	87906.1	-2.77167	113572.0	2.40359	173771.0	-0.883523	280.715	-0.0342685	234969.0	2.32218	228371.0	2.10737	179452.0	0.251716	162618.0	-0.264009	1.81365e+07	-2.89358	2.28381e+07	2.1074	
1.51282	146188.0	-0.362405	170695.0	-0.831278	76953.1	-2.50249	111122.0	2.49559	105782.0	-0.0939024	205.879	0.415617	167544.0	-2.9131	211212.0	-3.10122	179767.0	1.2771	154124.0	0.907483	1.8135e+07	-1.86449	2.11219e+07	-3.10115	
1.56154	167019.0	-1.24136	160647.0	-0.77952	65826.0	-2.75651	107149.0	2.56407	102971.0	-1.14217	269.438	-0.0636828	164726.0	-1.90039	192279.0	-2.00002	168876.0	2.38259	145722.0	2.10512	1.70343e+07	-0.759414	1.9228e+07	-1.99991	
1.61026	202011.0	-0.487756	150164.0	-0.719262	76730.3	-2.62302	102941.0	2.64372	149464.0	-0.309857	315.485	0.381844	113295.0	-0.858147	172598.0	-0.875184	163209.0	-2.80358	136638.0	-2.94325	1.6437e+07	0.3404	1.72587e+07	-0.875033	
1.65897	73523.0	-0.758715	136145.0	-0.667661	59252.2	-2.5779	95357.6	2.72141	45307.7	-0.26093	234.589	0.0535631	124247.0	0.0268835	152505.0	0.27183	152202.0	-1.61405	126679.0	-1.66477	1.53069e+07	1.52855	1.52478e+07	0.271985	
1.70769	177485.0	-0.7639	122804.0	-0.621593	64504.7	-2.71117	88174.9	2.79282	128391.0	-0.597175	413.152	0.316256	104992.0	1.1094	132199.0	1.43522	141414.0	-0.435665	115989.0	-0.343961	1.42134e+07	2.70825	1.32152e+07	1.43528	
1.75641	89094.0	0.0962646	106769.0	-0.569589	58184.9	-2.52144	78530.3	2.88476	83004.4	0.443915	148.274	0.625246	131073.0	2.17847	113006.0	2.60734	128656.0	0.811509	105164.0	1.02353	1.2914e+07	-2.32988	1.1295e+07	2.60712	
1.80513	127203.0	-1.05639	91709.0	-0.538975	51920.7	-2.7282	69221.0	2.95493	86364.5	-0.891772	580.987	0.214922	116382.0	-2.80024	96147.9	-2.50433	115442.0	2.05504	94414.8	2.41674	1.15994e+07	-1.08551	9.611e+06	-2.50501	
1.85385	102151.0	0.330836	74872.2	-0.480934	52571.0	-2.53749	58771.2	3.08074	101582.0	0.580952	199.945	2.3283	136792.0	-1.4961	83132.3	-1.33025	102094.0	-2.9227	84141.7	-2.43552	1.02615e+07	0.217237	8.31492e+06	-1.33136	
1.90256	88499.2	-1.34146	59380.8	-0.472136	42660.1	-2.7093	47659.9	-3.10747	54106.7	-1.22145	925.059	0.188093	108262.0	-0.0674018	73737.7	-0.128934	90776.1	-1.62093	75183.6	-0.968876	9.14197e+06	1.52157	7.38262e+06	-0.129864	
1.95128	81718.9	0.579414	42124.7	-0.387946	44730.7	-2.54548	37361.9	-2.86256	90747.0	0.808632	703.153	-3.1414	111285.0	1.45532	65659.9	1.12006	78035.2	-0.277221	68580.5	0.530734	7.88425e+06	2.8645	6.57929e+06	1.12022	
2.0	63893.8	-1.60365	27174.2	-0.418288	35721.2	-2.69868	26808.4	-2.62188	35744.8	-1.62489	1605.19	0.441666	71475.9	2.93495	56551.3	2.42144	68295.1	1.0514	65441.7	2.0688	6.90106e+06	-2.08399	5.66553e+06	2.4234	
