VARIABLES="Time (s)"
"AddedMass 1" "IRF 1"
"AddedMass 2" "IRF 2"
"AddedMass 3" "IRF 3"
"AddedMass 4" "IRF 4"
"AddedMass 5" "IRF 5"
"AddedMass 6" "IRF 6"
"AddedMass 7" "IRF 7"
"AddedMass 8" "IRF 8"
"AddedMass 9" "IRF 9"
"AddedMass 10" "IRF 10"
"AddedMass 11" "IRF 11"
"AddedMass 12" "IRF 12"
Zone t="DoF 1",I=	100,F=POINT
 0.0  140535.0  132596.0  -3.4535e-05  -0.000721235  -3.29525  -14.9005  -0.00101138  0.00131193  52401.1  107000.0  -0.00216575  0.0047397  -810.305  838.772  0.000720942  -0.00165549  -634.575  39.7133  -0.00097591  0.00111813  62609.3  -3098.24  -0.0795452  0.149303 
 0.1  140535.0  130878.0  -3.4535e-05  -0.000711638  -3.29525  -14.6511  -0.00101138  0.00129122  52401.1  105574.0  -0.00216575  0.00464877  -810.305  822.046  0.000720942  -0.00163449  -634.575  38.7009  -0.00097591  0.00110688  62609.3  -3014.51  -0.0795452  0.147488 
 0.2  140535.0  125771.0  -3.4535e-05  -0.000683166  -3.29525  -13.9114  -0.00101138  0.00122973  52401.1  101339.0  -0.00216575  0.00437931  -810.305  772.528  0.000720942  -0.0015721  -634.575  35.6989  -0.00097591  0.00107335  62609.3  -2766.16  -0.0795452  0.142094 
 0.3  140535.0  117423.0  -3.4535e-05  -0.000636759  -3.29525  -12.7069  -0.00101138  0.00112942  52401.1  94418.5  -0.00216575  0.00394122  -810.305  692.16  0.000720942  -0.00147011  -634.575  30.8138  -0.00097591  0.00101824  62609.3  -2361.83  -0.0795452  0.133267 
 0.4  140535.0  106070.0  -3.4535e-05  -0.000573948  -3.29525  -11.0786  -0.00101138  0.000993472  52401.1  85012.8  -0.00216575  0.00335059  -810.305  584.105  0.000720942  -0.00133146  -634.575  24.2186  -0.00097591  0.000942683  62609.3  -1815.45  -0.0795452  0.121247 
 0.5  140535.0  92033.8  -3.4535e-05  -0.000496793  -3.29525  -9.08239  -0.00101138  0.000826189  52401.1  73394.8  -0.00216575  0.0026291  -810.305  452.609  0.000720942  -0.00116013  -634.575  16.1446  -0.00097591  0.000848233  62609.3  -1145.77  -0.0795452  0.106361 
 0.6  140535.0  75712.8  -3.4535e-05  -0.00040781  -3.29525  -6.78645  -0.00101138  0.000632869  52401.1  59900.7  -0.00216575  0.00180333  -810.305  302.84  0.000720942  -0.000961031  -634.575  6.8742  -0.00097591  0.000736843  62609.3  -375.546  -0.0795452  0.089013 
 0.7  140535.0  57566.9  -3.4535e-05  -0.000309877  -3.29525  -4.26918  -0.00101138  0.000419625  52401.1  44919.5  -0.00216575  0.000903702  -810.305  140.685  0.000720942  -0.000739819  -634.575  -3.27173  -0.00097591  0.000610813  62609.3  469.282  -0.0795452  0.0696715 
 0.8  140535.0  38105.8  -3.4535e-05  -0.000206126  -3.29525  -1.6164  -0.00101138  0.000193193  52401.1  28881.2  -0.00216575  -3.65433e-05  -810.305  -27.4762  0.000720942  -0.000502749  -634.575  -13.9458  -0.00097591  0.000472752  62609.3  1360.61  -0.0795452  0.0488581 
 0.9  140535.0  17872.5  -3.4535e-05  -9.98273e-05  -3.29525  1.08164  -0.00101138  -3.92881e-05  52401.1  12243.5  -0.00216575  -0.000982568  -810.305  -195.032  0.000720942  -0.000256469  -634.575  -24.7883  -0.00097591  0.000325519  62609.3  2269.47  -0.0795452  0.0271315 
 1.0  140535.0  -2572.02  -3.4535e-05  5.72632e-06  -3.29525  3.73335  -0.00101138  -0.000270502  52401.1  -4521.89  -0.00216575  -0.00189918  -810.305  -355.39  0.000720942  -7.81287e-06  -634.575  -35.442  -0.00097591  0.000172169  62609.3  3167.01  -0.0795452  0.00507206 
 1.1  140535.0  -22666.3  -3.4535e-05  0.000107343  -3.29525  6.24902  -0.00101138  -0.000493192  52401.1  -20943.8  -0.00216575  -0.00275212  -810.305  -502.24  0.000720942  0.000236407  -634.575  -45.5654  -0.00097591  1.58885e-05  62609.3  4025.7  -0.0795452  -0.0167349 
 1.2  140535.0  -41864.7  -3.4535e-05  0.000202047  -3.29525  8.54388  -0.00101138  -0.000700389  52401.1  -36565.5  -0.00216575  -0.00350927  -810.305  -629.8  0.000720942  0.000469607  -634.575  -54.8479  -0.00097591  -0.000140069  62609.3  4820.52  -0.0795452  -0.0377153 
 1.3  140535.0  -59653.1  -3.4535e-05  0.000287178  -3.29525  10.5411  -0.00101138  -0.000885634  52401.1  -50958.9  -0.00216575  -0.00414183  -810.305  -733.048  0.000720942  0.000685632  -634.575  -63.0211  -0.00097591  -0.000292452  62609.3  5529.91  -0.0795452  -0.0573228 
 1.4  140535.0  -75564.2  -3.4535e-05  0.000360491  -3.29525  12.1741  -0.00101138  -0.00104318  52401.1  -63736.4  -0.00216575  -0.00462537  -810.305  -807.913  0.000720942  0.000878935  -634.575  -69.871  -0.00097591  -0.000438079  62609.3  6136.74  -0.0795452  -0.0750537 
 1.5  140535.0  -89190.9  -3.4535e-05  0.000420225  -3.29525  13.3895  -0.00101138  -0.00116818  52401.1  -74562.9  -0.00216575  -0.00494071  -810.305  -851.444  0.000720942  0.00104474  -634.575  -75.2462  -0.00097591  -0.000573906  62609.3  6628.95  -0.0795452  -0.0904611 
 1.6  140535.0  -100197.0  -3.4535e-05  0.000465162  -3.29525  14.1482  -0.00101138  -0.00125681  52401.1  -83164.7  -0.00216575  -0.00507465  -810.305  -861.923  0.000720942  0.00117916  -634.575  -79.0657  -0.00097591  -0.00069709  62609.3  7000.25  -0.0795452  -0.103167 
 1.7  140535.0  -108328.0  -3.4535e-05  0.00049466  -3.29525  14.427  -0.00101138  -0.00130644  52401.1  -89337.6  -0.00216575  -0.00502042  -810.305  -838.936  0.000720942  0.00127935  -634.575  -81.3216  -0.00097591  -0.000805056  62609.3  7250.25  -0.0795452  -0.112873 
 1.8  140535.0  -113414.0  -3.4535e-05  0.000508662  -3.29525  14.2192  -0.00101138  -0.00131564  52401.1  -92951.8  -0.00216575  -0.00477801  -810.305  -783.386  0.000720942  0.00134349  -634.575  -82.0801  -0.00097591  -0.000895544  62609.3  7384.65  -0.0795452  -0.119368 
 1.9  140535.0  -115378.0  -3.4535e-05  0.000507684  -3.29525  13.535  -0.00101138  -0.00128427  52401.1  -93954.9  -0.00216575  -0.00435415  -810.305  -697.466  0.000720942  0.00137091  -634.575  -81.4812  -0.00097591  -0.000966671  62609.3  7415.13  -0.0795452  -0.122532 
 2.0  140535.0  -114233.0  -3.4535e-05  0.000492781  -3.29525  12.401  -0.00101138  -0.00121346  52401.1  -92372.5  -0.00216575  -0.00376216  -810.305  -584.572  0.000720942  0.00136203  -634.575  -79.7329  -0.00097591  -0.00101697  62609.3  7358.89  -0.0795452  -0.122342 
 2.1  140535.0  -110082.0  -3.4535e-05  0.00046549  -3.29525  10.8587  -0.00101138  -0.00110557  52401.1  -88306.0  -0.00216575  -0.00302142  -810.305  -449.171  0.000720942  0.00131832  -634.575  -77.1033  -0.00097591  -0.0010454  62609.3  7238.1  -0.0795452  -0.118868 
 2.2  140535.0  -103115.0  -3.4535e-05  0.000427754  -3.29525  8.96386  -0.00101138  -0.000964091  52401.1  -81928.4  -0.00216575  -0.00215681  -810.305  -296.628  0.000720942  0.00124228  -634.575  -73.9129  -0.00097591  -0.00105143  62609.3  7079.11  -0.0795452  -0.112276 
 2.3  140535.0  -93596.6  -3.4535e-05  0.000381834  -3.29525  6.78363  -0.00101138  -0.000793545  52401.1  -73477.8  -0.00216575  -0.0011978  -810.305  -132.995  0.000720942  0.00113726  -634.575  -70.5204  -0.00097591  -0.001035  62609.3  6911.51  -0.0795452  -0.102813 
 2.4  140535.0  -81861.5  -3.4535e-05  0.000330204  -3.29525  4.39454  -0.00101138  -0.000599323  52401.1  -63248.9  -0.00216575  -0.00017745  -810.305  35.2184  0.000720942  0.00100741  -634.575  -67.3117  -0.00097591  -0.000996519  62609.3  6766.92  -0.0795452  -0.0908103 
 2.5  140535.0  -68301.1  -3.4535e-05  0.000275445  -3.29525  1.88001  -0.00101138  -0.000387516  52401.1  -51583.0  -0.00216575  0.000868724  -810.305  201.311  0.000720942  0.000857465  -634.575  -64.6828  -0.00097591  -0.00093692  62609.3  6677.99  -0.0795452  -0.0766641 
 2.6  140535.0  -53350.8  -3.4535e-05  0.00022013  -3.29525  -0.673187  -0.00101138  -0.000164706  52401.1  -38856.5  -0.00216575  0.001904  -810.305  358.643  0.000720942  0.000692607  -634.575  -63.0268  -0.00097591  -0.000857577  62609.3  6677.02  -0.0795452  -0.0608289 
 2.7  140535.0  -37475.6  -3.4535e-05  0.000166713  -3.29525  -3.17738  -0.00101138  6.22348e-05  52401.1  -25468.8  -0.00216575  0.0028917  -810.305  500.892  0.000720942  0.000518282  -634.575  -62.7184  -0.00097591  -0.000760309  62609.3  6794.82  -0.0795452  -0.0438014 
 2.8  140535.0  -21155.7  -3.4535e-05  0.000117427  -3.29525  -5.54739  -0.00101138  0.000286371  52401.1  -11829.2  -0.00216575  0.00379652  -810.305  622.327  0.000720942  0.00034001  -634.575  -64.0976  -0.00097591  -0.000647333  62609.3  7059.35  -0.0795452  -0.026107 
 2.9  140535.0  -4871.36  -3.4535e-05  7.41857e-05  -3.29525  -7.70355  -0.00101138  0.000500919  52401.1  1655.89  -0.00216575  0.0045857  -810.305  717.998  0.000720942  0.00016321  -634.575  -67.4595  -0.00097591  -0.000521212  62609.3  7494.92  -0.0795452  -0.00828327 
 3.0  140535.0  10911.6  -3.4535e-05  3.85089e-05  -3.29525  -9.57414  -0.00101138  0.000699456  52401.1  14595.1  -0.00216575  0.00523022  -810.305  783.961  0.000720942  -6.97429e-06  -634.575  -73.039  -0.00097591  -0.000384804  62609.3  8120.84  -0.0795452  0.00913476 
 3.1  140535.0  25755.8  -3.4535e-05  1.14568e-05  -3.29525  -11.098  -0.00101138  0.000876118  52401.1  26624.5  -0.00216575  0.00570581  -810.305  817.422  0.000720942  -0.000165837  -634.575  -81.0036  -0.00097591  -0.000241189  62609.3  8950.97  -0.0795452  0.0256308 
 3.2  140535.0  39264.9  -3.4535e-05  -6.40909e-06  -3.29525  -12.2265  -0.00101138  0.00102578  52401.1  37418.0  -0.00216575  0.0059938  -810.305  816.846  0.000720942  -0.000309246  -634.575  -91.447  -0.00097591  -9.36033e-05  62609.3  9992.99  -0.0795452  0.0407216 
 3.3  140535.0  51094.8  -3.4535e-05  -1.50461e-05  -3.29525  -12.9254  -0.00101138  0.0011442  52401.1  46696.5  -0.00216575  0.00608179  -810.305  782.03  0.000720942  -0.000433762  -634.575  -104.38  -0.00097591  5.46391e-05  62609.3  11247.9  -0.0795452  0.053971 
 3.4  140535.0  60962.8  -3.4535e-05  -1.49272e-05  -3.29525  -13.1754  -0.00101138  0.00122815  52401.1  54235.8  -0.00216575  0.00596412  -810.305  714.107  0.000720942  -0.000536728  -634.575  -119.736  -0.00097591  0.000200223  62609.3  12710.0  -0.0795452  0.0650022 
 3.5  140535.0  68654.5  -3.4535e-05  -7.01348e-06  -3.29525  -12.973  -0.00101138  0.00127549  52401.1  59872.0  -0.00216575  0.00564206  -810.305  615.503  0.000720942  -0.000616327  -634.575  -137.366  -0.00097591  0.000339912  62609.3  14367.1  -0.0795452  0.073508 
 3.6  140535.0  74028.7  -3.4535e-05  7.29403e-06  -3.29525  -12.3308  -0.00101138  0.00128522  52401.1  63505.2  -0.00216575  0.00512383  -810.305  489.851  0.000720942  -0.000671611  -634.575  -157.046  -0.00097591  0.000470625  62609.3  16200.7  -0.0795452  0.0792589 
 3.7  140535.0  77019.8  -3.4535e-05  2.62223e-05  -3.29525  -11.2762  -0.00101138  0.00125751  52401.1  65100.6  -0.00216575  0.00442432  -810.305  341.848  0.000720942  -0.000702503  -634.575  -178.486  -0.00097591  0.00058951  62609.3  18186.6  -0.0795452  0.0821096 
 3.8  140535.0  77637.0  -3.4535e-05  4.77119e-05  -3.29525  -9.85087  -0.00101138  0.00119366  52401.1  64688.4  -0.00216575  0.00356464  -810.305  177.073  0.000720942  -0.000709761  -634.575  -201.336  -0.00097591  0.000694018  62609.3  20295.9  -0.0795452  0.082002 
 3.9  140535.0  75962.3  -3.4535e-05  6.95172e-05  -3.29525  -8.10867  -0.00101138  0.00109602  52401.1  62360.3  -0.00216575  0.00257137  -810.305  1.77792  0.000720942  -0.000694916  -634.575  -225.2  -0.00097591  0.000781957  62609.3  22495.4  -0.0795452  0.0789664 
 4.0  140535.0  72145.5  -3.4535e-05  8.93136e-05  -3.29525  -6.11407  -0.00101138  0.000967973  52401.1  58265.4  -0.00216575  0.00147575  -810.305  -177.369  0.000720942  -0.000660189  -634.575  -249.65  -0.00097591  0.000851551  62609.3  24749.4  -0.0795452  0.0731196 
 4.1  140535.0  66397.0  -3.4535e-05  0.000104812  -3.29525  -3.93955  -0.00101138  0.000813722  52401.1  52603.2  -0.00216575  0.000312594  -810.305  -353.53  0.000720942  -0.000608377  -634.575  -274.24  -0.00097591  0.000901482  62609.3  27020.6  -0.0795452  0.064661 
 4.2  140535.0  58979.5  -3.4535e-05  0.000113873  -3.29525  -1.663  -0.00101138  0.000638201  52401.1  45615.8  -0.00216575  -0.000880861  -810.305  -519.966  0.000720942  -0.000542735  -634.575  -298.52  -0.00097591  0.000930923  62609.3  29271.2  -0.0795452  0.0538655 
 4.3  140535.0  50197.9  -3.4535e-05  0.000114615  -3.29525  0.635112  -0.00101138  0.000446894  52401.1  37579.2  -0.00216575  -0.00206616  -810.305  -670.309  0.000720942  -0.000466831  -634.575  -322.056  -0.00097591  0.000939551  62609.3  31464.4  -0.0795452  0.0410758 
 4.4  140535.0  40387.4  -3.4535e-05  0.000105517  -3.29525  2.8746  -0.00101138  0.000245651  52401.1  28792.3  -0.00216575  -0.00320495  -810.305  -798.803  0.000720942  -0.000384404  -634.575  -344.44  -0.00097591  0.000927561  62609.3  33565.7  -0.0795452  0.0266907 
 4.5  140535.0  29902.7  -3.4535e-05  8.55015e-05  -3.29525  4.97843  -0.00101138  4.05027e-05  52401.1  19567.4  -0.00216575  -0.00426023  -810.305  -900.528  0.000720942  -0.000299217  -634.575  -365.305  -0.00097591  0.000895656  62609.3  35543.6  -0.0795452  0.0111541 
 4.6  140535.0  19105.2  -3.4535e-05  5.40059e-05  -3.29525  6.87507  -0.00101138  -0.000162528  52401.1  10219.0  -0.00216575  -0.00519758  -810.305  -971.604  0.000720942  -0.000214912  -634.575  -384.34  -0.00097591  0.000845021  62609.3  37371.0  -0.0795452  -0.00505916 
 4.7  140535.0  8350.92  -3.4535e-05  1.1029e-05  -3.29525  8.50165  -0.00101138  -0.000357612  52401.1  1053.3  -0.00216575  -0.00598631  -810.305  -1009.33  0.000720942  -0.000134879  -634.575  -401.296  -0.00097591  0.000777301  62609.3  39026.1  -0.0795452  -0.0214566 
 4.8  140535.0  -2020.33  -3.4535e-05  -4.28437e-05  -3.29525  9.80533  -0.00101138  -0.000539288  52401.1  -7641.18  -0.00216575  -0.00660041  -810.305  -1012.3  0.000720942  -6.21359e-05  -634.575  -415.996  -0.00097591  0.000694544  62609.3  40492.7  -0.0795452  -0.0375428 
 4.9  140535.0  -11696.1  -3.4535e-05  -0.00010644  -3.29525  10.7454  -0.00101138  -0.000702621  52401.1  -15603.0  -0.00216575  -0.0070195  -810.305  -980.464  0.000720942  7.77283e-07  -634.575  -428.339  -0.00097591  0.000599151  62609.3  41760.6  -0.0795452  -0.052834 
 5.0  140535.0  -20400.1  -3.4535e-05  -0.000178025  -3.29525  11.2947  -0.00101138  -0.000843345  52401.1  -22605.6  -0.00216575  -0.00722938  -810.305  -915.115  0.000720942  5.18755e-05  -634.575  -438.298  -0.00097591  0.000493811  62609.3  42826.2  -0.0795452  -0.0668713 
 5.1  140535.0  -27900.5  -3.4535e-05  -0.000255357  -3.29525  11.4401  -0.00101138  -0.000957967  52401.1  -28463.2  -0.00216575  -0.00722256  -810.305  -818.855  0.000720942  8.97884e-05  -634.575  -445.926  -0.00097591  0.000381422  62609.3  43691.7  -0.0795452  -0.0792341 
 5.2  140535.0  -34015.4  -3.4535e-05  -0.000335753  -3.29525  11.1831  -0.00101138  -0.00104386  52401.1  -33036.3  -0.00216575  -0.00699842  -810.305  -695.487  0.000720942  0.000113789  -634.575  -451.343  -0.00097591  0.000265017  62609.3  44365.2  -0.0795452  -0.089552 
 5.3  140535.0  -38617.2  -3.4535e-05  -0.000416185  -3.29525  10.539  -0.00101138  -0.00109933  52401.1  -36234.3  -0.00216575  -0.00656328  -810.305  -549.865  0.000720942  0.000123803  -634.575  -454.735  -0.00097591  0.000147681  62609.3  44860.3  -0.0795452  -0.097514 
 5.4  140535.0  -41635.0  -3.4535e-05  -0.000493399  -3.29525  9.53706  -0.00101138  -0.0011236  52401.1  -38016.9  -0.00216575  -0.00593007  -810.305  -387.715  0.000720942  0.000120387  -634.575  -456.339  -0.00097591  3.24639e-05  62609.3  45194.6  -0.0795452  -0.102878 
 5.5  140535.0  -43054.4  -3.4535e-05  -0.000564029  -3.29525  8.21845  -0.00101138  -0.00111686  52401.1  -38393.7  -0.00216575  -0.00511798  -810.305  -215.395  0.000720942  0.000104685  -634.575  -456.432  -0.00097591  -7.76988e-05  62609.3  45389.1  -0.0795452  -0.105476 
 5.6  140535.0  -42916.0  -3.4535e-05  -0.000624742  -3.29525  6.63495  -0.00101138  -0.00108021  52401.1  -37422.1  -0.00216575  -0.00415172  -810.305  -39.6525  0.000720942  7.83611e-05  -634.575  -455.32  -0.00097591  -0.000180068  62609.3  45467.1  -0.0795452  -0.105219 
 5.7  140535.0  -41311.6  -3.4535e-05  -0.000672364  -3.29525  4.84688  -0.00101138  -0.00101557  52401.1  -35203.7  -0.00216575  -0.00306076  -810.305  132.643  0.000720942  4.35161e-05  -634.575  -453.317  -0.00097591  -0.000272171  62609.3  45453.0  -0.0795452  -0.102099 
 5.8  140535.0  -38379.1  -3.4535e-05  -0.000704028  -3.29525  2.92092  -0.00101138  -0.00092564  52401.1  -31878.9  -0.00216575  -0.00187832  -810.305  294.77  0.000720942  2.58672e-06  -634.575  -450.734  -0.00097591  -0.000351871  62609.3  45370.4  -0.0795452  -0.0961853 
 5.9  140535.0  -34296.0  -3.4535e-05  -0.000717292  -3.29525  0.927445  -0.00101138  -0.000813761  52401.1  -27620.6  -0.00216575  -0.000640237  -810.305  440.416  0.000720942  -4.17652e-05  -634.575  -447.859  -0.00097591  -0.000417418  62609.3  45241.6  -0.0795452  -0.0876265 
 6.0  140535.0  -29271.0  -3.4535e-05  -0.000710263  -3.29525  -1.06196  -0.00101138  -0.0006838  52401.1  -22627.2  -0.00216575  0.000616128  -810.305  563.95  0.000720942  -8.67726e-05  -634.575  -444.945  -0.00097591  -0.000467501  62609.3  45085.7  -0.0795452  -0.0766419 
 6.1  140535.0  -23536.5  -3.4535e-05  -0.000681689  -3.29525  -2.97714  -0.00101138  -0.000540014  52401.1  -17114.3  -0.00216575  0.00185315  -810.305  660.627  0.000720942  -0.000129679  -634.575  -442.19  -0.00097591  -0.000501271  62609.3  44917.6  -0.0795452  -0.0635157 
 6.2  140535.0  -17338.2  -3.4535e-05  -0.000631042  -3.29525  -4.75187  -0.00101138  -0.000386904  52401.1  -11306.8  -0.00216575  0.00303415  -810.305  726.781  0.000720942  -0.000167861  -634.575  -439.736  -0.00097591  -0.000518365  62609.3  44747.2  -0.0795452  -0.0485878 
 6.3  140535.0  -10927.0  -3.4535e-05  -0.000558566  -3.29525  -6.32626  -0.00101138  -0.000229067  52401.1  -5430.33  -0.00216575  0.00412448  -810.305  759.987  0.000720942  -0.000198932  -634.575  -437.643  -0.00097591  -0.000518907  62609.3  44578.3  -0.0795452  -0.0322442 
 6.4  140535.0  -4548.96  -3.4535e-05  -0.000465305  -3.29525  -7.64858  -0.00101138  -7.10574e-05  52401.1  296.632  -0.00216575  0.00509273  -810.305  759.154  0.000720942  -0.000220842  -634.575  -435.898  -0.00097591  -0.0005035  62609.3  44407.9  -0.0795452  -0.0149049 
 6.5  140535.0  1562.7  -3.4535e-05  -0.000353091  -3.29525  -8.67749  -0.00101138  8.27573e-05  52401.1  5670.57  -0.00216575  0.00591155  -810.305  724.571  0.000720942  -0.000231962  -634.575  -434.4  -0.00097591  -0.000473202  62609.3  44226.3  -0.0795452  0.00298782 
 6.6  140535.0  7195.76  -3.4535e-05  -0.000224517  -3.29525  -9.38256  -0.00101138  0.000228317  52401.1  10509.5  -0.00216575  0.00655856  -810.305  657.901  0.000720942  -0.000231148  -634.575  -432.96  -0.00097591  -0.000429487  62609.3  44016.3  -0.0795452  0.0209823 
 6.7  140535.0  12165.7  -3.4535e-05  -8.28652e-05  -3.29525  -9.74625  -0.00101138  0.000361981  52401.1  14659.0  -0.00216575  0.00701697  -810.305  562.139  0.000720942  -0.000217781  -634.575  -431.309  -0.00097591  -0.000374197  62609.3  43754.1  -0.0795452  0.0386301 
 6.8  140535.0  16321.3  -3.4535e-05  6.79784e-05  -3.29525  -9.76333  -0.00101138  0.000480619  52401.1  17996.4  -0.00216575  0.00727598  -810.305  441.472  0.000720942  -0.000191797  -634.575  -429.102  -0.00097591  -0.000309484  62609.3  43409.5  -0.0795452  0.055498 
 6.9  140535.0  19548.9  -3.4535e-05  0.000223648  -3.29525  -9.44155  -0.00101138  0.000581684  52401.1  20434.5  -0.00216575  0.0073311  -810.305  301.136  0.000720942  -0.000153676  -634.575  -425.922  -0.00097591  -0.000237739  62609.3  42946.2  -0.0795452  0.0711804 
 7.0  140535.0  21774.7  -3.4535e-05  0.000379431  -3.29525  -8.80081  -0.00101138  0.000663263  52401.1  21923.3  -0.00216575  0.00718412  -810.305  147.21  0.000720942  -0.000104433  -634.575  -421.299  -0.00097591  -0.000161518  62609.3  42323.9  -0.0795452  0.0853095 
 7.1  140535.0  22966.5  -3.4535e-05  0.00053043  -3.29525  -7.87241  -0.00101138  0.000724104  52401.1  22450.4  -0.00216575  0.00684299  -810.305  -13.6212  0.000720942  -4.55635e-05  -634.575  -414.72  -0.00097591  -8.34651e-05  62609.3  41498.2  -0.0795452  0.0975648 
 7.2  140535.0  23132.5  -3.4535e-05  0.000671719  -3.29525  -6.69723  -0.00101138  0.00076362  52401.1  22040.4  -0.00216575  0.00632145  -810.305  -174.323  0.000720942  2.10136e-05  -634.575  -405.647  -0.00097591  -6.2262e-06  62609.3  40422.7  -0.0795452  0.107681 
 7.3  140535.0  22320.0  -3.4535e-05  0.000798521  -3.29525  -5.32478  -0.00101138  0.000781872  52401.1  20752.2  -0.00216575  0.00563843  -810.305  -327.789  0.000720942  9.30313e-05  -634.575  -393.536  -0.00097591  6.76238e-05  62609.3  39050.6  -0.0795452  0.115455 
 7.4  140535.0  20611.7  -3.4535e-05  0.000906381  -3.29525  -3.81061  -0.00101138  0.000779533  52401.1  18675.9  -0.00216575  0.0048174  -810.305  -467.137  0.000720942  0.000167972  -634.575  -377.853  -0.00097591  0.000135665  62609.3  37336.0  -0.0795452  0.120748 
 7.5  140535.0  18121.3  -3.4535e-05  0.000991323  -3.29525  -2.2144  -0.00101138  0.000757834  52401.1  15928.4  -0.00216575  0.0038855  -810.305  -585.955  0.000720942  0.000243163  -634.575  -358.097  -0.00097591  0.000195701  62609.3  35235.6  -0.0795452  0.123489 
 7.6  140535.0  14987.9  -3.4535e-05  0.00105001  -3.29525  -0.597603  -0.00101138  0.000718493  52401.1  12647.7  -0.00216575  0.00287261  -810.305  -678.583  0.000720942  0.000315882  -634.575  -333.814  -0.00097591  0.000245823  62609.3  32710.0  -0.0795452  0.123677 
 7.7  140535.0  11370.1  -3.4535e-05  0.00107986  -3.29525  0.978807  -0.00101138  0.000663635  52401.1  8987.15  -0.00216575  0.00181029  -810.305  -740.319  0.000720942  0.000383468  -634.575  -304.615  -0.00097591  0.000284467  62609.3  29725.5  -0.0795452  0.121375 
 7.8  140535.0  7438.73  -3.4535e-05  0.00107917  -3.29525  2.45678  -0.00101138  0.0005957  52401.1  5109.2  -0.00216575  0.000730801  -810.305  -767.627  0.000720942  0.000443418  -634.575  -270.198  -0.00097591  0.000310454  62609.3  26255.6  -0.0795452  0.116711 
 7.9  140535.0  3369.98  -3.4535e-05  0.0010472  -3.29525  3.78292  -0.00101138  0.00051735  52401.1  1178.71  -0.00216575  -0.000333999  -810.305  -758.28  0.000720942  0.000493487  -634.575  -230.349  -0.00097591  0.000323024  62609.3  22281.6  -0.0795452  0.109869 
 8.0  140535.0  -661.449  -3.4535e-05  0.000984193  -3.29525  4.91116  -0.00101138  0.000431371  52401.1  -2643.29  -0.00216575  -0.00135364  -810.305  -711.454  0.000720942  0.000531773  -634.575  -184.965  -0.00097591  0.000321851  62609.3  17793.9  -0.0795452  0.101084 
 8.1  140535.0  -4489.26  -3.4535e-05  0.000891416  -3.29525  5.80331  -0.00101138  0.000340576  52401.1  -6205.77  -0.00216575  -0.0023  -810.305  -627.768  0.000720942  0.000556788  -634.575  -134.049  -0.00097591  0.000307051  62609.3  12792.6  -0.0795452  0.0906343 
 8.2  140535.0  -7961.49  -3.4535e-05  0.000771132  -3.29525  6.43113  -0.00101138  0.000247723  52401.1  -9373.04  -0.00216575  -0.0031481  -810.305  -509.275  0.000720942  0.00056751  -634.575  -77.7215  -0.00097591  0.000279169  62609.3  7287.45  -0.0795452  0.0788308 
 8.3  140535.0  -10946.3  -3.4535e-05  0.000626544  -3.29525  6.77713  -0.00101138  0.000155424  52401.1  -12029.7  -0.00216575  -0.0038769  -810.305  -359.395  0.000720942  0.000563421  -634.575  -16.219  -0.00097591  0.000239153  62609.3  1298.54  -0.0795452  0.0660081 
 8.4  140535.0  -13336.1  -3.4535e-05  0.000461704  -3.29525  6.8346  -0.00101138  6.60815e-05  52401.1  -14084.4  -0.00216575  -0.00446975  -810.305  -182.782  0.000720942  0.000544523  -634.575  50.1132  -0.00097591  0.000188327  62609.3  -5144.41  -0.0795452  0.0525141 
 8.5  140535.0  -15051.1  -3.4535e-05  0.0002814  -3.29525  6.60814  -0.00101138  -1.81759e-05  52401.1  -15472.3  -0.00216575  -0.00491491  -810.305  14.851  0.000720942  0.000511335  -634.575  120.826  -0.00097591  0.000128336  62609.3  -12002.6  -0.0795452  0.0386996 
 8.6  140535.0  -16041.6  -3.4535e-05  9.09994e-05  -3.29525  6.11306  -0.00101138  -9.55378e-05  52401.1  -16157.6  -0.00216575  -0.00520569  -810.305  226.924  0.000720942  0.000464864  -634.575  195.376  -0.00097591  6.10931e-05  62609.3  -19228.7  -0.0795452  0.0249076 
 8.7  140535.0  -16289.1  -3.4535e-05  -0.000103705  -3.29525  5.37461  -0.00101138  -0.000164542  52401.1  -16133.3  -0.00216575  -0.00534056  -810.305  446.252  0.000720942  0.000406571  -634.575  273.14  -0.00097591  -1.12829e-05  62609.3  -26767.9  -0.0795452  0.0114648 
 8.8  140535.0  -15805.7  -3.4535e-05  -0.0002967  -3.29525  4.4265  -0.00101138  -0.000224092  52401.1  -15421.0  -0.00216575  -0.00532298  -810.305  665.347  0.000720942  0.000338302  -634.575  353.435  -0.00097591  -8.65439e-05  62609.3  -34559.9  -0.0795452  -0.00132866 
 8.9  140535.0  -14633.1  -3.4535e-05  -0.00048193  -3.29525  3.31021  -0.00101138  -0.000273465  52401.1  -14069.3  -0.00216575  -0.00516116  -810.305  876.657  0.000720942  0.000262224  -634.575  435.523  -0.00097591  -0.000162379  62609.3  -42539.4  -0.0795452  -0.0132059 
 9.0  140535.0  -12839.7  -3.4535e-05  -0.000653502  -3.29525  2.0725  -0.00101138  -0.000312292  52401.1  -12150.8  -0.00216575  -0.00486758  -810.305  1072.87  0.000720942  0.000180735  -634.575  518.643  -0.00097591  -0.000236489  62609.3  -50637.8  -0.0795452  -0.0239398 
 9.1  140535.0  -10517.5  -3.4535e-05  -0.000805895  -3.29525  0.763537  -0.00101138  -0.000340551  52401.1  -9759.07  -0.00216575  -0.00445844  -810.305  1247.22  0.000720942  9.63714e-05  -634.575  602.022  -0.00097591  -0.000306667  62609.3  -58785.3  -0.0795452  -0.0333493 
 9.2  140535.0  -7777.58  -3.4535e-05  -0.000934128  -3.29525  -0.563928  -0.00101138  -0.000358522  52401.1  -7004.21  -0.00216575  -0.00395297  -810.305  1393.72  0.000720942  1.17165e-05  -634.575  684.896  -0.00097591  -0.000370853  62609.3  -66912.0  -0.0795452  -0.0413011 
 9.3  140535.0  -4744.93  -3.4535e-05  -0.00103395  -3.29525  -1.85906  -0.00101138  -0.000366754  52401.1  -4007.9  -0.00216575  -0.00337265  -810.305  1507.41  0.000720942  -7.07035e-05  -634.575  766.528  -0.00097591  -0.000427213  62609.3  -74949.7  -0.0795452  -0.047713 
 9.4  140535.0  -1553.5  -3.4535e-05  -0.00110196  -3.29525  -3.07198  -0.00101138  -0.00036602  52401.1  -898.607  -0.00216575  -0.00274042  -810.305  1584.53  0.000720942  -0.000148502  -634.575  846.222  -0.00097591  -0.000474178  62609.3  -82833.0  -0.0795452  -0.0525532 
 9.5  140535.0  1659.56  -3.4535e-05  -0.00113577  -3.29525  -4.15818  -0.00101138  -0.000357267  52401.1  2193.75  -0.00216575  -0.00207984  -810.305  1622.68  0.000720942  -0.000219528  -634.575  923.334  -0.00097591  -0.0005105  62609.3  -90500.2  -0.0795452  -0.0558395 
 9.6  140535.0  4759.66  -3.4535e-05  -0.00113405  -3.29525  -5.07856  -0.00101138  -0.000341564  52401.1  5143.15  -0.00216575  -0.00141417  -810.305  1620.92  0.000720942  -0.000281935  -634.575  997.292  -0.00097591  -0.00053528  62609.3  -97895.5  -0.0795452  -0.0576358 
 9.7  140535.0  7619.67  -3.4535e-05  -0.00109662  -3.29525  -5.80168  -0.00101138  -0.000320055  52401.1  7831.97  -0.00216575  -0.000765698  -810.305  1579.78  0.000720942  -0.000334245  -634.575  1067.59  -0.00097591  -0.00054799  62609.3  -104968.0  -0.0795452  -0.0580483 
 9.8  140535.0  10125.3  -3.4535e-05  -0.00102443  -3.29525  -6.30445  -0.00101138  -0.000293913  52401.1  10155.8  -0.00216575  -0.00015487  -810.305  1501.25  0.000720942  -0.000375394  -634.575  1133.82  -0.00097591  -0.000548488  62609.3  -111674.0  -0.0795452  -0.0572196 
 9.9  140535.0  12178.9  -3.4535e-05  -0.000919562  -3.29525  -6.57362  -0.00101138  -0.000264293  52401.1  12027.2  -0.00216575  0.000400287  -810.305  1388.69  0.000720942  -0.000404765  -634.575  1195.61  -0.00097591  -0.000537004  62609.3  -117975.0  -0.0795452  -0.0553223 
Zone t="DoF 2",I=	100,F=POINT
 0.0  -0.000132745  -0.000393337  140344.0  132265.0  -0.000560139  0.000532886  -51919.2  -106760.0  -9.22532e-05  1.92128e-05  0.0412155  0.024683  -2.09303e-05  3.32007e-05  62.5356  16.8049  -5.10093e-06  2.87282e-06  -75.7046  -15.6959  0.000337403  0.000916712  6183.4  1721.97 
 0.1  -0.000132745  -0.000387809  140344.0  130551.0  -0.000560139  0.000527783  -51919.2  -105338.0  -9.22532e-05  1.8286e-05  0.0412155  0.0239288  -2.09303e-05  3.27276e-05  62.5356  16.4684  -5.10093e-06  2.84863e-06  -75.7046  -15.3939  0.000337403  0.000908782  6183.4  1687.55 
 0.2  -0.000132745  -0.000371379  140344.0  125459.0  -0.000560139  0.000512591  -51919.2  -101114.0  -9.22532e-05  1.55507e-05  0.0412155  0.0217027  -2.09303e-05  3.13226e-05  62.5356  15.4728  -5.10093e-06  2.77654e-06  -75.7046  -14.5004  0.000337403  0.000885147  6183.4  1585.7 
 0.3  -0.000132745  -0.000344497  140344.0  117133.0  -0.000560139  0.000487648  -51919.2  -94210.1  -9.22532e-05  1.11393e-05  0.0412155  0.0181122  -2.09303e-05  2.90275e-05  62.5356  13.8596  -5.10093e-06  2.65806e-06  -75.7046  -13.0527  0.000337403  0.00084627  6183.4  1420.66 
 0.4  -0.000132745  -0.000307904  140344.0  105810.0  -0.000560139  0.000453515  -51919.2  -84827.7  -9.22532e-05  5.26661e-06  0.0412155  0.0133312  -2.09303e-05  2.5911e-05  62.5356  11.6959  -5.10093e-06  2.49564e-06  -75.7046  -11.111  0.000337403  0.000792909  6183.4  1199.28 
 0.5  -0.000132745  -0.000262608  140344.0  91811.6  -0.000560139  0.000410953  -51919.2  -73238.5  -9.22532e-05  -1.77985e-06  0.0412155  0.00759237  -2.09303e-05  2.20658e-05  62.5356  9.07189  -5.10093e-06  2.29262e-06  -75.7046  -8.75613  0.000337403  0.000726102  6183.4  930.752 
 0.6  -0.000132745  -0.000209858  140344.0  75534.0  -0.000560139  0.000360907  -51919.2  -59777.6  -9.22532e-05  -9.65209e-06  0.0412155  0.00117636  -2.09303e-05  1.76064e-05  62.5356  6.09699  -5.10093e-06  2.05319e-06  -75.7046  -6.08653  0.000337403  0.000647139  6183.4  626.251 