VARIABLES="X" "Y" "Z" "NX" "NY" "NZ" "A"
ZONE N=	351	, E=	280	, F=FEPOINT,ET=QUADRILATERAL
10.0	5.0	-10.0	0.	0.	0.	0.
10.0	5.0	-8.75	0.	0.	0.	0.
10.0	5.0	-7.5	0.	0.	0.	0.
10.0	5.0	-6.25	0.	0.	0.	0.
10.0	5.0	-5.0	0.	0.	0.	0.
10.0	5.0	-3.75	0.	0.	0.	0.
10.0	5.0	-2.5	0.	0.	0.	0.
10.0	5.0	-1.25	0.	0.	0.	0.
10.0	5.0	0.0	0.	0.	0.	0.
9.09090900421	4.09090900421	-10.0	0.	0.	0.	0.
9.09090900421	4.09090900421	-8.75	0.	0.	0.	0.
9.09090900421	4.09090900421	-7.5	0.	0.	0.	0.
9.09090900421	4.09090900421	-6.25	0.	0.	0.	0.
9.09090900421	4.09090900421	-5.0	0.	0.	0.	0.
9.09090900421	4.09090900421	-3.75	0.	0.	0.	0.
9.09090900421	4.09090900421	-2.5	0.	0.	0.	0.
9.09090900421	4.09090900421	-1.25	0.	0.	0.	0.
9.09090900421	4.09090900421	0.0	0.	0.	0.	0.
8.18181800842	3.18181800842	-10.0	0.	0.	0.	0.
8.18181800842	3.18181800842	-8.75	0.	0.	0.	0.
8.18181800842	3.18181800842	-7.5	0.	0.	0.	0.
8.18181800842	3.18181800842	-6.25	0.	0.	0.	0.
8.18181800842	3.18181800842	-5.0	0.	0.	0.	0.
8.18181800842	3.18181800842	-3.75	0.	0.	0.	0.
8.18181800842	3.18181800842	-2.5	0.	0.	0.	0.
8.18181800842	3.18181800842	-1.25	0.	0.	0.	0.
8.18181800842	3.18181800842	0.0	0.	0.	0.	0.
7.27272701263	2.27272725105	-10.0	0.	0.	0.	0.
7.27272701263	2.27272725105	-8.75	0.	0.	0.	0.
7.27272701263	2.27272725105	-7.5	0.	0.	0.	0.
7.27272701263	2.27272725105	-6.25	0.	0.	0.	0.
7.27272701263	2.27272725105	-5.0	0.	0.	0.	0.
7.27272701263	2.27272725105	-3.75	0.	0.	0.	0.
7.27272701263	2.27272725105	-2.5	0.	0.	0.	0.
7.27272701263	2.27272725105	-1.25	0.	0.	0.	0.
7.27272701263	2.27272725105	0.0	0.	0.	0.	0.
6.36363601685	1.36363625526	-10.0	0.	0.	0.	0.
6.36363601685	1.36363625526	-8.75	0.	0.	0.	0.
6.36363601685	1.36363625526	-7.5	0.	0.	0.	0.
6.36363601685	1.36363625526	-6.25	0.	0.	0.	0.
6.36363601685	1.36363625526	-5.0	0.	0.	0.	0.
6.36363601685	1.36363625526	-3.75	0.	0.	0.	0.
6.36363601685	1.36363625526	-2.5	0.	0.	0.	0.
6.36363601685	1.36363625526	-1.25	0.	0.	0.	0.
6.36363601685	1.36363625526	0.0	0.	0.	0.	0.
5.45454549789	0.454545497894	-10.0	0.	0.	0.	0.
5.45454549789	0.454545497894	-8.75	0.	0.	0.	0.
5.45454549789	0.454545497894	-7.5	0.	0.	0.	0.
5.45454549789	0.454545497894	-6.25	0.	0.	0.	0.
5.45454549789	0.454545497894	-5.0	0.	0.	0.	0.
5.45454549789	0.454545497894	-3.75	0.	0.	0.	0.
5.45454549789	0.454545497894	-2.5	0.	0.	0.	0.
5.45454549789	0.454545497894	-1.25	0.	0.	0.	0.
5.45454549789	0.454545497894	0.0	0.	0.	0.	0.
4.54545450211	-0.454545497894	-10.0	0.	0.	0.	0.
4.54545450211	-0.454545497894	-8.75	0.	0.	0.	0.
4.54545450211	-0.454545497894	-7.5	0.	0.	0.	0.
4.54545450211	-0.454545497894	-6.25	0.	0.	0.	0.
4.54545450211	-0.454545497894	-5.0	0.	0.	0.	0.
4.54545450211	-0.454545497894	-3.75	0.	0.	0.	0.
4.54545450211	-0.454545497894	-2.5	0.	0.	0.	0.
4.54545450211	-0.454545497894	-1.25	0.	0.	0.	0.
4.54545450211	-0.454545497894	0.0	0.	0.	0.	0.
3.63636350632	-1.36363649368	-10.0	0.	0.	0.	0.
3.63636350632	-1.36363649368	-8.75	0.	0.	0.	0.
3.63636350632	-1.36363649368	-7.5	0.	0.	0.	0.
3.63636350632	-1.36363649368	-6.25	0.	0.	0.	0.
3.63636350632	-1.36363649368	-5.0	0.	0.	0.	0.
3.63636350632	-1.36363649368	-3.75	0.	0.	0.	0.
3.63636350632	-1.36363649368	-2.5	0.	0.	0.	0.
3.63636350632	-1.36363649368	-1.25	0.	0.	0.	0.
3.63636350632	-1.36363649368	0.0	0.	0.	0.	0.
2.72727251053	-2.27272748947	-10.0	0.	0.	0.	0.
2.72727251053	-2.27272748947	-8.75	0.	0.	0.	0.
2.72727251053	-2.27272748947	-7.5	0.	0.	0.	0.
2.72727251053	-2.27272748947	-6.25	0.	0.	0.	0.
2.72727251053	-2.27272748947	-5.0	0.	0.	0.	0.
2.72727251053	-2.27272748947	-3.75	0.	0.	0.	0.
2.72727251053	-2.27272748947	-2.5	0.	0.	0.	0.
2.72727251053	-2.27272748947	-1.25	0.	0.	0.	0.
2.72727251053	-2.27272748947	0.0	0.	0.	0.	0.
1.81818199158	-3.18181800842	-10.0	0.	0.	0.	0.
1.81818199158	-3.18181800842	-8.75	0.	0.	0.	0.
1.81818199158	-3.18181800842	-7.5	0.	0.	0.	0.
1.81818199158	-3.18181800842	-6.25	0.	0.	0.	0.
1.81818199158	-3.18181800842	-5.0	0.	0.	0.	0.
1.81818199158	-3.18181800842	-3.75	0.	0.	0.	0.
1.81818199158	-3.18181800842	-2.5	0.	0.	0.	0.
1.81818199158	-3.18181800842	-1.25	0.	0.	0.	0.
1.81818199158	-3.18181800842	0.0	0.	0.	0.	0.
0.909090995789	-4.09090900421	-10.0	0.	0.	0.	0.
0.909090995789	-4.09090900421	-8.75	0.	0.	0.	0.
0.909090995789	-4.09090900421	-7.5	0.	0.	0.	0.
0.909090995789	-4.09090900421	-6.25	0.	0.	0.	0.
0.909090995789	-4.09090900421	-5.0	0.	0.	0.	0.
0.909090995789	-4.09090900421	-3.75	0.	0.	0.	0.
0.909090995789	-4.09090900421	-2.5	0.	0.	0.	0.
0.909090995789	-4.09090900421	-1.25	0.	0.	0.	0.
0.909090995789	-4.09090900421	0.0	0.	0.	0.	0.
0.0	-5.0	-10.0	0.	0.	0.	0.
0.0	-5.0	-8.75	0.	0.	0.	0.
0.0	-5.0	-7.5	0.	0.	0.	0.
0.0	-5.0	-6.25	0.	0.	0.	0.
0.0	-5.0	-5.0	0.	0.	0.	0.
0.0	-5.0	-3.75	0.	0.	0.	0.
0.0	-5.0	-2.5	0.	0.	0.	0.
0.0	-5.0	-1.25	0.	0.	0.	0.
0.0	-5.0	0.0	0.	0.	0.	0.
0.0	5.0	-10.0	0.	0.	0.	0.
0.0	5.0	-8.75	0.	0.	0.	0.
0.0	5.0	-7.5	0.	0.	0.	0.
0.0	5.0	-6.25	0.	0.	0.	0.
0.0	5.0	-5.0	0.	0.	0.	0.
0.0	5.0	-3.75	0.	0.	0.	0.
0.0	5.0	-2.5	0.	0.	0.	0.
0.0	5.0	-1.25	0.	0.	0.	0.
0.0	5.0	0.0	0.	0.	0.	0.
1.25	5.0	-10.0	0.	0.	0.	0.
1.25	5.0	-8.75	0.	0.	0.	0.
1.25	5.0	-7.5	0.	0.	0.	0.
1.25	5.0	-6.25	0.	0.	0.	0.
1.25	5.0	-5.0	0.	0.	0.	0.
1.25	5.0	-3.75	0.	0.	0.	0.
1.25	5.0	-2.5	0.	0.	0.	0.
1.25	5.0	-1.25	0.	0.	0.	0.
1.25	5.0	0.0	0.	0.	0.	0.
2.5	5.0	-10.0	0.	0.	0.	0.
2.5	5.0	-8.75	0.	0.	0.	0.
2.5	5.0	-7.5	0.	0.	0.	0.
2.5	5.0	-6.25	0.	0.	0.	0.
2.5	5.0	-5.0	0.	0.	0.	0.
2.5	5.0	-3.75	0.	0.	0.	0.
2.5	5.0	-2.5	0.	0.	0.	0.
2.5	5.0	-1.25	0.	0.	0.	0.
2.5	5.0	0.0	0.	0.	0.	0.
3.75	5.0	-10.0	0.	0.	0.	0.
3.75	5.0	-8.75	0.	0.	0.	0.
3.75	5.0	-7.5	0.	0.	0.	0.
3.75	5.0	-6.25	0.	0.	0.	0.
3.75	5.0	-5.0	0.	0.	0.	0.
3.75	5.0	-3.75	0.	0.	0.	0.
3.75	5.0	-2.5	0.	0.	0.	0.
3.75	5.0	-1.25	0.	0.	0.	0.
3.75	5.0	0.0	0.	0.	0.	0.
5.0	5.0	-10.0	0.	0.	0.	0.
5.0	5.0	-8.75	0.	0.	0.	0.
5.0	5.0	-7.5	0.	0.	0.	0.
5.0	5.0	-6.25	0.	0.	0.	0.
5.0	5.0	-5.0	0.	0.	0.	0.
5.0	5.0	-3.75	0.	0.	0.	0.
5.0	5.0	-2.5	0.	0.	0.	0.
5.0	5.0	-1.25	0.	0.	0.	0.
5.0	5.0	0.0	0.	0.	0.	0.
6.25	5.0	-10.0	0.	0.	0.	0.
6.25	5.0	-8.75	0.	0.	0.	0.
6.25	5.0	-7.5	0.	0.	0.	0.
6.25	5.0	-6.25	0.	0.	0.	0.
6.25	5.0	-5.0	0.	0.	0.	0.
6.25	5.0	-3.75	0.	0.	0.	0.
6.25	5.0	-2.5	0.	0.	0.	0.
6.25	5.0	-1.25	0.	0.	0.	0.
6.25	5.0	0.0	0.	0.	0.	0.
7.5	5.0	-10.0	0.	0.	0.	0.
7.5	5.0	-8.75	0.	0.	0.	0.
7.5	5.0	-7.5	0.	0.	0.	0.
7.5	5.0	-6.25	0.	0.	0.	0.
7.5	5.0	-5.0	0.	0.	0.	0.
7.5	5.0	-3.75	0.	0.	0.	0.
7.5	5.0	-2.5	0.	0.	0.	0.
7.5	5.0	-1.25	0.	0.	0.	0.
7.5	5.0	0.0	0.	0.	0.	0.
8.75	5.0	-10.0	0.	0.	0.	0.
8.75	5.0	-8.75	0.	0.	0.	0.
8.75	5.0	-7.5	0.	0.	0.	0.
8.75	5.0	-6.25	0.	0.	0.	0.
8.75	5.0	-5.0	0.	0.	0.	0.
8.75	5.0	-3.75	0.	0.	0.	0.
8.75	5.0	-2.5	0.	0.	0.	0.
8.75	5.0	-1.25	0.	0.	0.	0.
8.75	5.0	0.0	0.	0.	0.	0.
10.0	5.0	-10.0	0.	0.	0.	0.
10.0	5.0	-8.75	0.	0.	0.	0.
10.0	5.0	-7.5	0.	0.	0.	0.
10.0	5.0	-6.25	0.	0.	0.	0.
10.0	5.0	-5.0	0.	0.	0.	0.
10.0	5.0	-3.75	0.	0.	0.	0.
10.0	5.0	-2.5	0.	0.	0.	0.
10.0	5.0	-1.25	0.	0.	0.	0.
10.0	5.0	0.0	0.	0.	0.	0.
0.0	-5.0	-10.0	0.	0.	0.	0.
0.0	-5.0	-8.75	0.	0.	0.	0.
0.0	-5.0	-7.5	0.	0.	0.	0.
0.0	-5.0	-6.25	0.	0.	0.	0.
0.0	-5.0	-5.0	0.	0.	0.	0.
0.0	-5.0	-3.75	0.	0.	0.	0.
0.0	-5.0	-2.5	0.	0.	0.	0.
0.0	-5.0	-1.25	0.	0.	0.	0.
0.0	-5.0	0.0	0.	0.	0.	0.
0.0	-3.75	-10.0	0.	0.	0.	0.
0.0	-3.75	-8.75	0.	0.	0.	0.
0.0	-3.75	-7.5	0.	0.	0.	0.
0.0	-3.75	-6.25	0.	0.	0.	0.
0.0	-3.75	-5.0	0.	0.	0.	0.
0.0	-3.75	-3.75	0.	0.	0.	0.
0.0	-3.75	-2.5	0.	0.	0.	0.
0.0	-3.75	-1.25	0.	0.	0.	0.
0.0	-3.75	0.0	0.	0.	0.	0.
0.0	-2.5	-10.0	0.	0.	0.	0.
0.0	-2.5	-8.75	0.	0.	0.	0.
0.0	-2.5	-7.5	0.	0.	0.	0.
0.0	-2.5	-6.25	0.	0.	0.	0.
0.0	-2.5	-5.0	0.	0.	0.	0.
0.0	-2.5	-3.75	0.	0.	0.	0.
0.0	-2.5	-2.5	0.	0.	0.	0.
0.0	-2.5	-1.25	0.	0.	0.	0.
0.0	-2.5	0.0	0.	0.	0.	0.
0.0	-1.25	-10.0	0.	0.	0.	0.
0.0	-1.25	-8.75	0.	0.	0.	0.
0.0	-1.25	-7.5	0.	0.	0.	0.
0.0	-1.25	-6.25	0.	0.	0.	0.
0.0	-1.25	-5.0	0.	0.	0.	0.
0.0	-1.25	-3.75	0.	0.	0.	0.
0.0	-1.25	-2.5	0.	0.	0.	0.
0.0	-1.25	-1.25	0.	0.	0.	0.
0.0	-1.25	0.0	0.	0.	0.	0.
0.0	0.0	-10.0	0.	0.	0.	0.
0.0	0.0	-8.75	0.	0.	0.	0.
0.0	0.0	-7.5	0.	0.	0.	0.
0.0	0.0	-6.25	0.	0.	0.	0.
0.0	0.0	-5.0	0.	0.	0.	0.
0.0	0.0	-3.75	0.	0.	0.	0.
0.0	0.0	-2.5	0.	0.	0.	0.
0.0	0.0	-1.25	0.	0.	0.	0.
0.0	0.0	0.0	0.	0.	0.	0.
0.0	1.25	-10.0	0.	0.	0.	0.
0.0	1.25	-8.75	0.	0.	0.	0.
0.0	1.25	-7.5	0.	0.	0.	0.
0.0	1.25	-6.25	0.	0.	0.	0.
0.0	1.25	-5.0	0.	0.	0.	0.
0.0	1.25	-3.75	0.	0.	0.	0.
0.0	1.25	-2.5	0.	0.	0.	0.
0.0	1.25	-1.25	0.	0.	0.	0.
0.0	1.25	0.0	0.	0.	0.	0.
0.0	2.5	-10.0	0.	0.	0.	0.
0.0	2.5	-8.75	0.	0.	0.	0.
0.0	2.5	-7.5	0.	0.	0.	0.
0.0	2.5	-6.25	0.	0.	0.	0.
0.0	2.5	-5.0	0.	0.	0.	0.
0.0	2.5	-3.75	0.	0.	0.	0.
0.0	2.5	-2.5	0.	0.	0.	0.
0.0	2.5	-1.25	0.	0.	0.	0.
0.0	2.5	0.0	0.	0.	0.	0.
0.0	3.75	-10.0	0.	0.	0.	0.
0.0	3.75	-8.75	0.	0.	0.	0.
0.0	3.75	-7.5	0.	0.	0.	0.
0.0	3.75	-6.25	0.	0.	0.	0.
0.0	3.75	-5.0	0.	0.	0.	0.
0.0	3.75	-3.75	0.	0.	0.	0.
0.0	3.75	-2.5	0.	0.	0.	0.
0.0	3.75	-1.25	0.	0.	0.	0.
0.0	3.75	0.0	0.	0.	0.	0.
0.0	5.0	-10.0	0.	0.	0.	0.
0.0	5.0	-8.75	0.	0.	0.	0.
0.0	5.0	-7.5	0.	0.	0.	0.
0.0	5.0	-6.25	0.	0.	0.	0.
0.0	5.0	-5.0	0.	0.	0.	0.
0.0	5.0	-3.75	0.	0.	0.	0.
0.0	5.0	-2.5	0.	0.	0.	0.
0.0	5.0	-1.25	0.	0.	0.	0.
0.0	5.0	0.0	0.	0.	0.	0.
0.0	5.0	-10.0	0.	0.	0.	0.
1.25	5.0	-10.0	0.	0.	0.	0.
2.5	5.0	-10.0	0.	0.	0.	0.
3.75	5.0	-10.0	0.	0.	0.	0.
5.0	5.0	-10.0	0.	0.	0.	0.
6.25	5.0	-10.0	0.	0.	0.	0.
7.5	5.0	-10.0	0.	0.	0.	0.
8.75	5.0	-10.0	0.	0.	0.	0.
10.0	5.0	-10.0	0.	0.	0.	0.
0.0	3.75	-10.0	0.	0.	0.	0.
1.25	3.90625	-10.0	0.	0.	0.	0.
2.5	4.0625	-10.0	0.	0.	0.	0.
3.75	4.21875	-10.0	0.	0.	0.	0.
5.0	4.375	-10.0	0.	0.	0.	0.
6.25	4.53125	-10.0	0.	0.	0.	0.
7.5	4.6875	-10.0	0.	0.	0.	0.
8.75	4.84375	-10.0	0.	0.	0.	0.
10.0	5.0	-10.0	0.	0.	0.	0.
0.0	2.5	-10.0	0.	0.	0.	0.
1.25	2.8125	-10.0	0.	0.	0.	0.
2.5	3.125	-10.0	0.	0.	0.	0.
3.75	3.4375	-10.0	0.	0.	0.	0.
5.0	3.75	-10.0	0.	0.	0.	0.
6.25	4.0625	-10.0	0.	0.	0.	0.
7.5	4.375	-10.0	0.	0.	0.	0.
8.75	4.6875	-10.0	0.	0.	0.	0.
10.0	5.0	-10.0	0.	0.	0.	0.
0.0	1.25	-10.0	0.	0.	0.	0.
1.25	1.71875	-10.0	0.	0.	0.	0.
2.5	2.1875	-10.0	0.	0.	0.	0.
3.75	2.65625	-10.0	0.	0.	0.	0.
5.0	3.125	-10.0	0.	0.	0.	0.
6.25	3.59375	-10.0	0.	0.	0.	0.
7.5	4.0625	-10.0	0.	0.	0.	0.
8.75	4.53125	-10.0	0.	0.	0.	0.
10.0	5.0	-10.0	0.	0.	0.	0.
0.0	0.0	-10.0	0.	0.	0.	0.
1.25	0.625	-10.0	0.	0.	0.	0.
2.5	1.25	-10.0	0.	0.	0.	0.
3.75	1.875	-10.0	0.	0.	0.	0.
5.0	2.5	-10.0	0.	0.	0.	0.
6.25	3.125	-10.0	0.	0.	0.	0.
7.5	3.75	-10.0	0.	0.	0.	0.
8.75	4.375	-10.0	0.	0.	0.	0.
10.0	5.0	-10.0	0.	0.	0.	0.
0.0	-1.25	-10.0	0.	0.	0.	0.
1.25	-0.46875	-10.0	0.	0.	0.	0.
2.5	0.3125	-10.0	0.	0.	0.	0.
3.75	1.09375	-10.0	0.	0.	0.	0.
5.0	1.875	-10.0	0.	0.	0.	0.
6.25	2.65625	-10.0	0.	0.	0.	0.
7.5	3.4375	-10.0	0.	0.	0.	0.
8.75	4.21875	-10.0	0.	0.	0.	0.
10.0	5.0	-10.0	0.	0.	0.	0.
0.0	-2.5	-10.0	0.	0.	0.	0.
1.25	-1.5625	-10.0	0.	0.	0.	0.
2.5	-0.625	-10.0	0.	0.	0.	0.
3.75	0.3125	-10.0	0.	0.	0.	0.
5.0	1.25	-10.0	0.	0.	0.	0.
6.25	2.1875	-10.0	0.	0.	0.	0.
7.5	3.125	-10.0	0.	0.	0.	0.
8.75	4.0625	-10.0	0.	0.	0.	0.
10.0	5.0	-10.0	0.	0.	0.	0.
0.0	-3.75	-10.0	0.	0.	0.	0.
1.25	-2.65625	-10.0	0.	0.	0.	0.
2.5	-1.5625	-10.0	0.	0.	0.	0.
3.75	-0.46875	-10.0	0.	0.	0.	0.
5.0	0.625	-10.0	0.	0.	0.	0.
6.25	1.71875	-10.0	0.	0.	0.	0.
7.5	2.8125	-10.0	0.	0.	0.	0.
8.75	3.90625	-10.0	0.	0.	0.	0.
10.0	5.0	-10.0	0.	0.	0.	0.
0.0	-5.0	-10.0	0.	0.	0.	0.
1.25	-3.75	-10.0	0.	0.	0.	0.
2.5	-2.5	-10.0	0.	0.	0.	0.
3.75	-1.25	-10.0	0.	0.	0.	0.
5.0	0.0	-10.0	0.	0.	0.	0.
6.25	1.25	-10.0	0.	0.	0.	0.
7.5	2.5	-10.0	0.	0.	0.	0.
8.75	3.75	-10.0	0.	0.	0.	0.
10.0	5.0	-10.0	0.	0.	0.	0.
1.0	2.0	11.0	10.0
2.0	3.0	12.0	11.0
3.0	4.0	13.0	12.0
4.0	5.0	14.0	13.0
5.0	6.0	15.0	14.0
6.0	7.0	16.0	15.0
7.0	8.0	17.0	16.0
8.0	9.0	18.0	17.0
10.0	11.0	20.0	19.0
11.0	12.0	21.0	20.0
12.0	13.0	22.0	21.0
13.0	14.0	23.0	22.0
14.0	15.0	24.0	23.0
15.0	16.0	25.0	24.0
16.0	17.0	26.0	25.0
17.0	18.0	27.0	26.0
19.0	20.0	29.0	28.0
20.0	21.0	30.0	29.0
21.0	22.0	31.0	30.0
22.0	23.0	32.0	31.0
23.0	24.0	33.0	32.0
24.0	25.0	34.0	33.0
25.0	26.0	35.0	34.0
26.0	27.0	36.0	35.0
28.0	29.0	38.0	37.0
29.0	30.0	39.0	38.0
30.0	31.0	40.0	39.0
31.0	32.0	41.0	40.0
32.0	33.0	42.0	41.0
33.0	34.0	43.0	42.0
34.0	35.0	44.0	43.0
35.0	36.0	45.0	44.0
37.0	38.0	47.0	46.0
38.0	39.0	48.0	47.0
39.0	40.0	49.0	48.0
40.0	41.0	50.0	49.0
41.0	42.0	51.0	50.0
42.0	43.0	52.0	51.0
43.0	44.0	53.0	52.0
44.0	45.0	54.0	53.0
46.0	47.0	56.0	55.0
47.0	48.0	57.0	56.0
48.0	49.0	58.0	57.0
49.0	50.0	59.0	58.0
50.0	51.0	60.0	59.0
51.0	52.0	61.0	60.0
52.0	53.0	62.0	61.0
53.0	54.0	63.0	62.0
55.0	56.0	65.0	64.0
56.0	57.0	66.0	65.0
57.0	58.0	67.0	66.0
58.0	59.0	68.0	67.0
59.0	60.0	69.0	68.0
60.0	61.0	70.0	69.0
61.0	62.0	71.0	70.0
62.0	63.0	72.0	71.0
64.0	65.0	74.0	73.0
65.0	66.0	75.0	74.0
66.0	67.0	76.0	75.0
67.0	68.0	77.0	76.0
68.0	69.0	78.0	77.0
69.0	70.0	79.0	78.0
70.0	71.0	80.0	79.0
71.0	72.0	81.0	80.0
73.0	74.0	83.0	82.0
74.0	75.0	84.0	83.0
75.0	76.0	85.0	84.0
76.0	77.0	86.0	85.0
77.0	78.0	87.0	86.0
78.0	79.0	88.0	87.0
79.0	80.0	89.0	88.0
80.0	81.0	90.0	89.0
82.0	83.0	92.0	91.0
83.0	84.0	93.0	92.0
84.0	85.0	94.0	93.0
85.0	86.0	95.0	94.0
86.0	87.0	96.0	95.0
87.0	88.0	97.0	96.0
88.0	89.0	98.0	97.0
89.0	90.0	99.0	98.0
91.0	92.0	101.0	100.0
92.0	93.0	102.0	101.0
93.0	94.0	103.0	102.0
94.0	95.0	104.0	103.0
95.0	96.0	105.0	104.0
96.0	97.0	106.0	105.0
97.0	98.0	107.0	106.0
98.0	99.0	108.0	107.0
109.0	110.0	119.0	118.0
110.0	111.0	120.0	119.0
111.0	112.0	121.0	120.0
112.0	113.0	122.0	121.0
113.0	114.0	123.0	122.0
114.0	115.0	124.0	123.0
115.0	116.0	125.0	124.0
116.0	117.0	126.0	125.0
118.0	119.0	128.0	127.0
119.0	120.0	129.0	128.0
120.0	121.0	130.0	129.0
121.0	122.0	131.0	130.0
122.0	123.0	132.0	131.0
123.0	124.0	133.0	132.0
124.0	125.0	134.0	133.0
125.0	126.0	135.0	134.0
127.0	128.0	137.0	136.0
128.0	129.0	138.0	137.0
129.0	130.0	139.0	138.0
130.0	131.0	140.0	139.0
131.0	132.0	141.0	140.0
132.0	133.0	142.0	141.0
133.0	134.0	143.0	142.0
134.0	135.0	144.0	143.0
136.0	137.0	146.0	145.0
137.0	138.0	147.0	146.0
138.0	139.0	148.0	147.0
139.0	140.0	149.0	148.0
140.0	141.0	150.0	149.0
141.0	142.0	151.0	150.0
142.0	143.0	152.0	151.0
143.0	144.0	153.0	152.0
145.0	146.0	155.0	154.0
146.0	147.0	156.0	155.0
147.0	148.0	157.0	156.0
148.0	149.0	158.0	157.0
149.0	150.0	159.0	158.0
150.0	151.0	160.0	159.0
151.0	152.0	161.0	160.0
152.0	153.0	162.0	161.0
154.0	155.0	164.0	163.0
155.0	156.0	165.0	164.0
156.0	157.0	166.0	165.0
157.0	158.0	167.0	166.0
158.0	159.0	168.0	167.0
159.0	160.0	169.0	168.0
160.0	161.0	170.0	169.0
161.0	162.0	171.0	170.0
163.0	164.0	173.0	172.0
164.0	165.0	174.0	173.0
165.0	166.0	175.0	174.0
166.0	167.0	176.0	175.0
167.0	168.0	177.0	176.0
168.0	169.0	178.0	177.0
169.0	170.0	179.0	178.0
170.0	171.0	180.0	179.0
172.0	173.0	182.0	181.0
173.0	174.0	183.0	182.0
174.0	175.0	184.0	183.0
175.0	176.0	185.0	184.0
176.0	177.0	186.0	185.0
177.0	178.0	187.0	186.0
178.0	179.0	188.0	187.0
179.0	180.0	189.0	188.0
190.0	191.0	200.0	199.0
191.0	192.0	201.0	200.0
192.0	193.0	202.0	201.0
193.0	194.0	203.0	202.0
194.0	195.0	204.0	203.0
195.0	196.0	205.0	204.0
196.0	197.0	206.0	205.0
197.0	198.0	207.0	206.0
199.0	200.0	209.0	208.0
200.0	201.0	210.0	209.0
201.0	202.0	211.0	210.0
202.0	203.0	212.0	211.0
203.0	204.0	213.0	212.0
204.0	205.0	214.0	213.0
205.0	206.0	215.0	214.0
206.0	207.0	216.0	215.0
208.0	209.0	218.0	217.0
209.0	210.0	219.0	218.0
210.0	211.0	220.0	219.0
211.0	212.0	221.0	220.0
212.0	213.0	222.0	221.0
213.0	214.0	223.0	222.0
214.0	215.0	224.0	223.0
215.0	216.0	225.0	224.0
217.0	218.0	227.0	226.0
218.0	219.0	228.0	227.0
219.0	220.0	229.0	228.0
220.0	221.0	230.0	229.0
221.0	222.0	231.0	230.0
222.0	223.0	232.0	231.0
223.0	224.0	233.0	232.0
224.0	225.0	234.0	233.0
226.0	227.0	236.0	235.0
227.0	228.0	237.0	236.0
228.0	229.0	238.0	237.0
229.0	230.0	239.0	238.0
230.0	231.0	240.0	239.0
231.0	232.0	241.0	240.0
232.0	233.0	242.0	241.0
233.0	234.0	243.0	242.0
235.0	236.0	245.0	244.0
236.0	237.0	246.0	245.0
237.0	238.0	247.0	246.0
238.0	239.0	248.0	247.0
239.0	240.0	249.0	248.0
240.0	241.0	250.0	249.0
241.0	242.0	251.0	250.0
242.0	243.0	252.0	251.0
244.0	245.0	254.0	253.0
245.0	246.0	255.0	254.0
246.0	247.0	256.0	255.0
247.0	248.0	257.0	256.0
248.0	249.0	258.0	257.0
249.0	250.0	259.0	258.0
250.0	251.0	260.0	259.0
251.0	252.0	261.0	260.0
253.0	254.0	263.0	262.0
254.0	255.0	264.0	263.0
255.0	256.0	265.0	264.0
256.0	257.0	266.0	265.0
257.0	258.0	267.0	266.0
258.0	259.0	268.0	267.0
259.0	260.0	269.0	268.0
260.0	261.0	270.0	269.0
271.0	272.0	281.0	280.0
272.0	273.0	282.0	281.0
273.0	274.0	283.0	282.0
274.0	275.0	284.0	283.0
275.0	276.0	285.0	284.0
276.0	277.0	286.0	285.0
277.0	278.0	287.0	286.0
278.0	279.0	288.0	287.0
280.0	281.0	290.0	289.0
281.0	282.0	291.0	290.0
282.0	283.0	292.0	291.0
283.0	284.0	293.0	292.0
284.0	285.0	294.0	293.0
285.0	286.0	295.0	294.0
286.0	287.0	296.0	295.0
287.0	288.0	297.0	296.0
289.0	290.0	299.0	298.0
290.0	291.0	300.0	299.0
291.0	292.0	301.0	300.0
292.0	293.0	302.0	301.0
293.0	294.0	303.0	302.0
294.0	295.0	304.0	303.0
295.0	296.0	305.0	304.0
296.0	297.0	306.0	305.0
298.0	299.0	308.0	307.0
299.0	300.0	309.0	308.0
300.0	301.0	310.0	309.0
301.0	302.0	311.0	310.0
302.0	303.0	312.0	311.0
303.0	304.0	313.0	312.0
304.0	305.0	314.0	313.0
305.0	306.0	315.0	314.0
307.0	308.0	317.0	316.0
308.0	309.0	318.0	317.0
309.0	310.0	319.0	318.0
310.0	311.0	320.0	319.0
311.0	312.0	321.0	320.0
312.0	313.0	322.0	321.0
313.0	314.0	323.0	322.0
314.0	315.0	324.0	323.0
316.0	317.0	326.0	325.0
317.0	318.0	327.0	326.0
318.0	319.0	328.0	327.0
319.0	320.0	329.0	328.0
320.0	321.0	330.0	329.0
321.0	322.0	331.0	330.0
322.0	323.0	332.0	331.0
323.0	324.0	333.0	332.0
325.0	326.0	335.0	334.0
326.0	327.0	336.0	335.0
327.0	328.0	337.0	336.0
328.0	329.0	338.0	337.0
329.0	330.0	339.0	338.0
330.0	331.0	340.0	339.0
331.0	332.0	341.0	340.0
332.0	333.0	342.0	341.0
334.0	335.0	344.0	343.0
335.0	336.0	345.0	344.0
336.0	337.0	346.0	345.0
337.0	338.0	347.0	346.0
338.0	339.0	348.0	347.0
339.0	340.0	349.0	348.0
340.0	341.0	350.0	349.0
341.0	342.0	351.0	350.0
ZONE t="normales", F=POINT, I=	280
9.54545450211	4.54545450211	-9.375	0.707106781187	-0.707106781187	0.0	1.60706101959
9.54545450211	4.54545450211	-8.125	0.707106781187	-0.707106781187	0.0	1.60706101959
9.54545450211	4.54545450211	-6.875	0.707106781187	-0.707106781187	0.0	1.60706101959
9.54545450211	4.54545450211	-5.625	0.707106781187	-0.707106781187	0.0	1.60706101959
9.54545450211	4.54545450211	-4.375	0.707106781187	-0.707106781187	0.0	1.60706101959
9.54545450211	4.54545450211	-3.125	0.707106781187	-0.707106781187	0.0	1.60706101959
9.54545450211	4.54545450211	-1.875	0.707106781187	-0.707106781187	0.0	1.60706101959
9.54545450211	4.54545450211	-0.625	0.707106781187	-0.707106781187	0.0	1.60706101959
8.63636350632	3.63636350632	-9.375	0.707106781187	-0.707106781187	0.0	1.60706101959
8.63636350632	3.63636350632	-8.125	0.707106781187	-0.707106781187	0.0	1.60706101959
8.63636350632	3.63636350632	-6.875	0.707106781187	-0.707106781187	0.0	1.60706101959
8.63636350632	3.63636350632	-5.625	0.707106781187	-0.707106781187	0.0	1.60706101959
8.63636350632	3.63636350632	-4.375	0.707106781187	-0.707106781187	0.0	1.60706101959
8.63636350632	3.63636350632	-3.125	0.707106781187	-0.707106781187	0.0	1.60706101959
8.63636350632	3.63636350632	-1.875	0.707106781187	-0.707106781187	0.0	1.60706101959
8.63636350632	3.63636350632	-0.625	0.707106781187	-0.707106781187	0.0	1.60706101959
7.72727251053	2.72727262974	-9.375	0.707106688463	-0.70710687391	0.0	1.60706080886
7.72727251053	2.72727262974	-8.125	0.707106688463	-0.70710687391	0.0	1.60706080886
7.72727251053	2.72727262974	-6.875	0.707106688463	-0.70710687391	0.0	1.60706080886
7.72727251053	2.72727262974	-5.625	0.707106688463	-0.70710687391	0.0	1.60706080886
7.72727251053	2.72727262974	-4.375	0.707106688463	-0.70710687391	0.0	1.60706080886
7.72727251053	2.72727262974	-3.125	0.707106688463	-0.70710687391	0.0	1.60706080886
7.72727251053	2.72727262974	-1.875	0.707106688463	-0.70710687391	0.0	1.60706080886
7.72727251053	2.72727262974	-0.625	0.707106688463	-0.70710687391	0.0	1.60706080886
6.81818151474	1.81818175316	-9.375	0.707106781187	-0.707106781187	0.0	1.60706101959
6.81818151474	1.81818175316	-8.125	0.707106781187	-0.707106781187	0.0	1.60706101959
6.81818151474	1.81818175316	-6.875	0.707106781187	-0.707106781187	0.0	1.60706101959
6.81818151474	1.81818175316	-5.625	0.707106781187	-0.707106781187	0.0	1.60706101959
6.81818151474	1.81818175316	-4.375	0.707106781187	-0.707106781187	0.0	1.60706101959
6.81818151474	1.81818175316	-3.125	0.707106781187	-0.707106781187	0.0	1.60706101959
6.81818151474	1.81818175316	-1.875	0.707106781187	-0.707106781187	0.0	1.60706101959
6.81818151474	1.81818175316	-0.625	0.707106781187	-0.707106781187	0.0	1.60706101959
5.90909075737	0.909090876579	-9.375	0.70710687391	-0.707106688463	0.0	1.60706038739
5.90909075737	0.909090876579	-8.125	0.70710687391	-0.707106688463	0.0	1.60706038739
5.90909075737	0.909090876579	-6.875	0.70710687391	-0.707106688463	0.0	1.60706038739
5.90909075737	0.909090876579	-5.625	0.70710687391	-0.707106688463	0.0	1.60706038739
5.90909075737	0.909090876579	-4.375	0.70710687391	-0.707106688463	0.0	1.60706038739
5.90909075737	0.909090876579	-3.125	0.70710687391	-0.707106688463	0.0	1.60706038739
5.90909075737	0.909090876579	-1.875	0.70710687391	-0.707106688463	0.0	1.60706038739
5.90909075737	0.909090876579	-0.625	0.70710687391	-0.707106688463	0.0	1.60706038739
5.0	0.0	-9.375	0.707106781187	-0.707106781187	0.0	1.60706101959
5.0	0.0	-8.125	0.707106781187	-0.707106781187	0.0	1.60706101959
5.0	0.0	-6.875	0.707106781187	-0.707106781187	0.0	1.60706101959
5.0	0.0	-5.625	0.707106781187	-0.707106781187	0.0	1.60706101959
5.0	0.0	-4.375	0.707106781187	-0.707106781187	0.0	1.60706101959
5.0	0.0	-3.125	0.707106781187	-0.707106781187	0.0	1.60706101959
5.0	0.0	-1.875	0.707106781187	-0.707106781187	0.0	1.60706101959
5.0	0.0	-0.625	0.707106781187	-0.707106781187	0.0	1.60706101959
4.09090900421	-0.909090995789	-9.375	0.707106781187	-0.707106781187	0.0	1.60706101959
4.09090900421	-0.909090995789	-8.125	0.707106781187	-0.707106781187	0.0	1.60706101959
4.09090900421	-0.909090995789	-6.875	0.707106781187	-0.707106781187	0.0	1.60706101959
4.09090900421	-0.909090995789	-5.625	0.707106781187	-0.707106781187	0.0	1.60706101959
4.09090900421	-0.909090995789	-4.375	0.707106781187	-0.707106781187	0.0	1.60706101959
4.09090900421	-0.909090995789	-3.125	0.707106781187	-0.707106781187	0.0	1.60706101959
4.09090900421	-0.909090995789	-1.875	0.707106781187	-0.707106781187	0.0	1.60706101959
4.09090900421	-0.909090995789	-0.625	0.707106781187	-0.707106781187	0.0	1.60706101959
3.18181800842	-1.81818199158	-9.375	0.707106781187	-0.707106781187	0.0	1.60706101959
3.18181800842	-1.81818199158	-8.125	0.707106781187	-0.707106781187	0.0	1.60706101959
3.18181800842	-1.81818199158	-6.875	0.707106781187	-0.707106781187	0.0	1.60706101959
3.18181800842	-1.81818199158	-5.625	0.707106781187	-0.707106781187	0.0	1.60706101959
3.18181800842	-1.81818199158	-4.375	0.707106781187	-0.707106781187	0.0	1.60706101959
3.18181800842	-1.81818199158	-3.125	0.707106781187	-0.707106781187	0.0	1.60706101959
3.18181800842	-1.81818199158	-1.875	0.707106781187	-0.707106781187	0.0	1.60706101959
3.18181800842	-1.81818199158	-0.625	0.707106781187	-0.707106781187	0.0	1.60706101959
2.27272725105	-2.72727274895	-9.375	0.707106781187	-0.707106781187	0.0	1.60706017666
2.27272725105	-2.72727274895	-8.125	0.707106781187	-0.707106781187	0.0	1.60706017666
2.27272725105	-2.72727274895	-6.875	0.707106781187	-0.707106781187	0.0	1.60706017666
2.27272725105	-2.72727274895	-5.625	0.707106781187	-0.707106781187	0.0	1.60706017666
2.27272725105	-2.72727274895	-4.375	0.707106781187	-0.707106781187	0.0	1.60706017666
2.27272725105	-2.72727274895	-3.125	0.707106781187	-0.707106781187	0.0	1.60706017666
2.27272725105	-2.72727274895	-1.875	0.707106781187	-0.707106781187	0.0	1.60706017666
2.27272725105	-2.72727274895	-0.625	0.707106781187	-0.707106781187	0.0	1.60706017666
1.36363649368	-3.63636350632	-9.375	0.707106781187	-0.707106781187	0.0	1.60706101959
1.36363649368	-3.63636350632	-8.125	0.707106781187	-0.707106781187	0.0	1.60706101959
1.36363649368	-3.63636350632	-6.875	0.707106781187	-0.707106781187	0.0	1.60706101959
1.36363649368	-3.63636350632	-5.625	0.707106781187	-0.707106781187	0.0	1.60706101959
1.36363649368	-3.63636350632	-4.375	0.707106781187	-0.707106781187	0.0	1.60706101959
1.36363649368	-3.63636350632	-3.125	0.707106781187	-0.707106781187	0.0	1.60706101959
1.36363649368	-3.63636350632	-1.875	0.707106781187	-0.707106781187	0.0	1.60706101959
1.36363649368	-3.63636350632	-0.625	0.707106781187	-0.707106781187	0.0	1.60706101959
0.454545497894	-4.54545450211	-9.375	0.707106781187	-0.707106781187	0.0	1.60706101959
0.454545497894	-4.54545450211	-8.125	0.707106781187	-0.707106781187	0.0	1.60706101959
0.454545497894	-4.54545450211	-6.875	0.707106781187	-0.707106781187	0.0	1.60706101959
0.454545497894	-4.54545450211	-5.625	0.707106781187	-0.707106781187	0.0	1.60706101959
0.454545497894	-4.54545450211	-4.375	0.707106781187	-0.707106781187	0.0	1.60706101959
0.454545497894	-4.54545450211	-3.125	0.707106781187	-0.707106781187	0.0	1.60706101959
0.454545497894	-4.54545450211	-1.875	0.707106781187	-0.707106781187	0.0	1.60706101959
0.454545497894	-4.54545450211	-0.625	0.707106781187	-0.707106781187	0.0	1.60706101959
0.625	5.0	-9.375	0.0	1.0	0.0	1.5625
0.625	5.0	-8.125	0.0	1.0	0.0	1.5625
0.625	5.0	-6.875	0.0	1.0	0.0	1.5625
0.625	5.0	-5.625	0.0	1.0	0.0	1.5625
0.625	5.0	-4.375	0.0	1.0	0.0	1.5625
0.625	5.0	-3.125	0.0	1.0	0.0	1.5625
0.625	5.0	-1.875	0.0	1.0	0.0	1.5625
0.625	5.0	-0.625	0.0	1.0	0.0	1.5625
1.875	5.0	-9.375	0.0	1.0	0.0	1.5625
1.875	5.0	-8.125	0.0	1.0	0.0	1.5625
1.875	5.0	-6.875	0.0	1.0	0.0	1.5625
1.875	5.0	-5.625	0.0	1.0	0.0	1.5625
1.875	5.0	-4.375	0.0	1.0	0.0	1.5625
1.875	5.0	-3.125	0.0	1.0	0.0	1.5625
1.875	5.0	-1.875	0.0	1.0	0.0	1.5625
1.875	5.0	-0.625	0.0	1.0	0.0	1.5625
3.125	5.0	-9.375	0.0	1.0	0.0	1.5625
3.125	5.0	-8.125	0.0	1.0	0.0	1.5625
3.125	5.0	-6.875	0.0	1.0	0.0	1.5625
3.125	5.0	-5.625	0.0	1.0	0.0	1.5625
3.125	5.0	-4.375	0.0	1.0	0.0	1.5625
3.125	5.0	-3.125	0.0	1.0	0.0	1.5625
3.125	5.0	-1.875	0.0	1.0	0.0	1.5625
3.125	5.0	-0.625	0.0	1.0	0.0	1.5625
4.375	5.0	-9.375	0.0	1.0	0.0	1.5625
4.375	5.0	-8.125	0.0	1.0	0.0	1.5625
4.375	5.0	-6.875	0.0	1.0	0.0	1.5625
4.375	5.0	-5.625	0.0	1.0	0.0	1.5625
4.375	5.0	-4.375	0.0	1.0	0.0	1.5625
4.375	5.0	-3.125	0.0	1.0	0.0	1.5625
4.375	5.0	-1.875	0.0	1.0	0.0	1.5625
4.375	5.0	-0.625	0.0	1.0	0.0	1.5625
5.625	5.0	-9.375	0.0	1.0	0.0	1.5625
5.625	5.0	-8.125	0.0	1.0	0.0	1.5625
5.625	5.0	-6.875	0.0	1.0	0.0	1.5625
5.625	5.0	-5.625	0.0	1.0	0.0	1.5625
5.625	5.0	-4.375	0.0	1.0	0.0	1.5625
5.625	5.0	-3.125	0.0	1.0	0.0	1.5625
5.625	5.0	-1.875	0.0	1.0	0.0	1.5625
5.625	5.0	-0.625	0.0	1.0	0.0	1.5625
6.875	5.0	-9.375	0.0	1.0	0.0	1.5625
6.875	5.0	-8.125	0.0	1.0	0.0	1.5625
6.875	5.0	-6.875	0.0	1.0	0.0	1.5625
6.875	5.0	-5.625	0.0	1.0	0.0	1.5625
6.875	5.0	-4.375	0.0	1.0	0.0	1.5625
6.875	5.0	-3.125	0.0	1.0	0.0	1.5625
6.875	5.0	-1.875	0.0	1.0	0.0	1.5625
6.875	5.0	-0.625	0.0	1.0	0.0	1.5625
8.125	5.0	-9.375	0.0	1.0	0.0	1.5625
8.125	5.0	-8.125	0.0	1.0	0.0	1.5625
8.125	5.0	-6.875	0.0	1.0	0.0	1.5625
8.125	5.0	-5.625	0.0	1.0	0.0	1.5625
8.125	5.0	-4.375	0.0	1.0	0.0	1.5625
8.125	5.0	-3.125	0.0	1.0	0.0	1.5625
8.125	5.0	-1.875	0.0	1.0	0.0	1.5625
8.125	5.0	-0.625	0.0	1.0	0.0	1.5625
9.375	5.0	-9.375	0.0	1.0	0.0	1.5625
9.375	5.0	-8.125	0.0	1.0	0.0	1.5625
9.375	5.0	-6.875	0.0	1.0	0.0	1.5625
9.375	5.0	-5.625	0.0	1.0	0.0	1.5625
9.375	5.0	-4.375	0.0	1.0	0.0	1.5625
9.375	5.0	-3.125	0.0	1.0	0.0	1.5625
9.375	5.0	-1.875	0.0	1.0	0.0	1.5625
9.375	5.0	-0.625	0.0	1.0	0.0	1.5625
0.0	-4.375	-9.375	-1.0	0.0	0.0	1.5625
0.0	-4.375	-8.125	-1.0	0.0	0.0	1.5625
0.0	-4.375	-6.875	-1.0	0.0	0.0	1.5625
0.0	-4.375	-5.625	-1.0	0.0	0.0	1.5625
0.0	-4.375	-4.375	-1.0	0.0	0.0	1.5625
0.0	-4.375	-3.125	-1.0	0.0	0.0	1.5625
0.0	-4.375	-1.875	-1.0	0.0	0.0	1.5625
0.0	-4.375	-0.625	-1.0	0.0	0.0	1.5625
0.0	-3.125	-9.375	-1.0	0.0	0.0	1.5625
0.0	-3.125	-8.125	-1.0	0.0	0.0	1.5625
0.0	-3.125	-6.875	-1.0	0.0	0.0	1.5625
0.0	-3.125	-5.625	-1.0	0.0	0.0	1.5625
0.0	-3.125	-4.375	-1.0	0.0	0.0	1.5625
0.0	-3.125	-3.125	-1.0	0.0	0.0	1.5625
0.0	-3.125	-1.875	-1.0	0.0	0.0	1.5625
0.0	-3.125	-0.625	-1.0	0.0	0.0	1.5625
0.0	-1.875	-9.375	-1.0	0.0	0.0	1.5625
0.0	-1.875	-8.125	-1.0	0.0	0.0	1.5625
0.0	-1.875	-6.875	-1.0	0.0	0.0	1.5625
0.0	-1.875	-5.625	-1.0	0.0	0.0	1.5625
0.0	-1.875	-4.375	-1.0	0.0	0.0	1.5625
0.0	-1.875	-3.125	-1.0	0.0	0.0	1.5625
0.0	-1.875	-1.875	-1.0	0.0	0.0	1.5625
0.0	-1.875	-0.625	-1.0	0.0	0.0	1.5625
0.0	-0.625	-9.375	-1.0	0.0	0.0	1.5625
0.0	-0.625	-8.125	-1.0	0.0	0.0	1.5625
0.0	-0.625	-6.875	-1.0	0.0	0.0	1.5625
0.0	-0.625	-5.625	-1.0	0.0	0.0	1.5625
0.0	-0.625	-4.375	-1.0	0.0	0.0	1.5625
0.0	-0.625	-3.125	-1.0	0.0	0.0	1.5625
0.0	-0.625	-1.875	-1.0	0.0	0.0	1.5625
0.0	-0.625	-0.625	-1.0	0.0	0.0	1.5625
0.0	0.625	-9.375	-1.0	0.0	0.0	1.5625
0.0	0.625	-8.125	-1.0	0.0	0.0	1.5625
0.0	0.625	-6.875	-1.0	0.0	0.0	1.5625
0.0	0.625	-5.625	-1.0	0.0	0.0	1.5625
0.0	0.625	-4.375	-1.0	0.0	0.0	1.5625
0.0	0.625	-3.125	-1.0	0.0	0.0	1.5625
0.0	0.625	-1.875	-1.0	0.0	0.0	1.5625
0.0	0.625	-0.625	-1.0	0.0	0.0	1.5625
0.0	1.875	-9.375	-1.0	0.0	0.0	1.5625
0.0	1.875	-8.125	-1.0	0.0	0.0	1.5625
0.0	1.875	-6.875	-1.0	0.0	0.0	1.5625
0.0	1.875	-5.625	-1.0	0.0	0.0	1.5625
0.0	1.875	-4.375	-1.0	0.0	0.0	1.5625
0.0	1.875	-3.125	-1.0	0.0	0.0	1.5625
0.0	1.875	-1.875	-1.0	0.0	0.0	1.5625
0.0	1.875	-0.625	-1.0	0.0	0.0	1.5625
0.0	3.125	-9.375	-1.0	0.0	0.0	1.5625
0.0	3.125	-8.125	-1.0	0.0	0.0	1.5625
0.0	3.125	-6.875	-1.0	0.0	0.0	1.5625
0.0	3.125	-5.625	-1.0	0.0	0.0	1.5625
0.0	3.125	-4.375	-1.0	0.0	0.0	1.5625
0.0	3.125	-3.125	-1.0	0.0	0.0	1.5625
0.0	3.125	-1.875	-1.0	0.0	0.0	1.5625
0.0	3.125	-0.625	-1.0	0.0	0.0	1.5625
0.0	4.375	-9.375	-1.0	0.0	0.0	1.5625
0.0	4.375	-8.125	-1.0	0.0	0.0	1.5625
0.0	4.375	-6.875	-1.0	0.0	0.0	1.5625
0.0	4.375	-5.625	-1.0	0.0	0.0	1.5625
0.0	4.375	-4.375	-1.0	0.0	0.0	1.5625
0.0	4.375	-3.125	-1.0	0.0	0.0	1.5625
0.0	4.375	-1.875	-1.0	0.0	0.0	1.5625
0.0	4.375	-0.625	-1.0	0.0	0.0	1.5625
0.611111111111	4.41319444444	-10.0	0.0	0.0	-1.0	1.46484375
1.85897435897	4.49118589744	-10.0	0.0	0.0	-1.0	1.26953125
3.10606060606	4.56912878788	-10.0	0.0	0.0	-1.0	1.07421875
4.35185185185	4.64699074074	-10.0	0.0	0.0	-1.0	0.87890625
5.59523809524	4.72470238095	-10.0	0.0	0.0	-1.0	0.68359375