VARIABLES="w (rad/s)"
"abs(F	1	1)" "angle(F	1	1)"
"abs(F	1	2)" "angle(F	1	2)"
"abs(F	1	3)" "angle(F	1	3)"
"abs(F	1	4)" "angle(F	1	4)"
"abs(F	1	5)" "angle(F	1	5)"
"abs(F	1	6)" "angle(F	1	6)"
Zone t="Diffraction force - beta = 0.0 deg",I=	41,F=POINT
0.1	5812.67	-3.14159	0.000537742	-1.44901	2758.32	1.58173	0.000779964	1.6381	17800.5	-3.14159	3.52868e-05	-3.13484	
0.1475	12693.2	-3.14158	0.000633894	-1.39767	5993.93	1.59385	0.00498197	-1.45337	39048.7	-3.14158	4.19725e-05	-0.0227234	
0.195	22101.5	-3.14155	0.00276032	-1.49125	10399.3	1.60961	0.00855114	-2.69111	68158.8	-3.14155	0.000129703	-3.13424	
0.2425	34039.2	-3.14143	0.00437052	-1.22113	15833.0	1.62842	0.00193399	-0.226799	105430.0	-3.14143	0.000130831	0.131588	
0.29	48416.1	-3.14113	0.00775399	1.47076	22219.8	1.64925	0.0210706	1.64582	150628.0	-3.14112	0.000160501	-3.08214	
0.3375	65156.0	-3.14048	0.00423138	-2.2216	29307.6	1.67159	0.00396004	1.63442	203567.0	-3.14047	0.000328203	-0.0290616	
0.385	84272.9	-3.13922	0.00652933	1.21638	36824.7	1.69499	0.0277629	2.62163	264970.0	-3.1392	2.15792e-05	-2.35619	
0.4325	105659.0	-3.13702	0.0240341	1.42938	44554.0	1.71881	0.0410643	2.89995	334399.0	-3.13698	0.00145031	-3.11002	
0.48	129231.0	-3.13342	0.00563588	0.357503	52326.4	1.74231	0.0201032	-0.143185	412106.0	-3.13336	0.000241263	0.965252	
0.5275	154979.0	-3.1279	0.0086587	-2.93595	59992.3	1.7649	0.073684	-2.92876	497791.0	-3.12779	0.000702277	-3.109	
0.575	183039.0	-3.11985	0.0119576	3.03259	66868.3	1.78798	0.0567281	-0.974438	594098.0	-3.11969	0.000427859	0.383818	
0.6225	212844.0	-3.10856	0.0295584	2.71558	73384.7	1.80917	0.123401	1.40032	696750.0	-3.10829	0.00103515	-2.80353	
0.67	244697.0	-3.09338	0.0220876	0.432902	78890.6	1.83027	0.105618	2.44068	809657.0	-3.09299	0.00106254	-2.92448	
0.7175	278153.0	-3.07357	0.0214288	-0.240316	83711.2	1.8495	0.0392324	2.93794	931673.0	-3.07306	0.00195461	3.10255	
0.765	312657.0	-3.04842	0.0347509	-2.10726	87244.1	1.86881	0.0719681	-1.35194	1.05988e+06	-3.04773	0.00214928	-3.03133	
0.8125	347445.0	-3.01736	0.0390813	-2.87985	90197.3	1.88589	0.100132	2.73222	1.19142e+06	-3.01638	0.000266483	0.41241	
0.86	382391.0	-2.98023	0.00797184	0.0411645	91450.2	1.90354	0.0432374	-2.14705	1.33023e+06	-2.97904	0.000674544	0.761403	
0.9075	416123.0	-2.9366	0.00665216	0.0947614	92024.5	1.91972	0.0235301	2.02458	1.46925e+06	-2.9352	0.00132341	-0.396565	
0.955	446640.0	-2.88625	0.0717898	-3.08777	91611.1	1.93463	0.101516	3.04827	1.6005e+06	-2.88454	0.00151363	1.32643	
1.0025	472898.0	-2.82958	0.0271951	-1.72855	89901.3	1.94956	0.140858	0.482833	1.71878e+06	-2.82735	0.0028602	2.44685	
1.05	493943.0	-2.76814	0.120101	-2.97966	87629.2	1.96352	0.310724	3.0195	1.82402e+06	-2.76548	0.00111246	2.28946	
1.0975	507581.0	-2.70232	0.0306941	2.67883	84599.5	1.9762	0.349605	0.0914344	1.90592e+06	-2.69921	0.00303523	-2.8771	
1.145	513284.0	-2.63332	0.0179081	-0.733258	80563.1	1.98821	0.259098	-0.0347532	1.95951e+06	-2.62965	0.00445141	-2.11886	
1.1925	510624.0	-2.56341	0.0257912	-2.42632	76164.9	1.9997	0.171084	-0.958302	1.9835e+06	-2.55921	0.00146429	-2.55648	
1.24	499082.0	-2.49366	0.0342115	1.48327	71600.1	2.01064	0.0347791	0.987174	1.9733e+06	-2.4889	0.00415319	0.0367482	
1.2875	479787.0	-2.42536	0.0268453	2.81795	66390.2	2.01922	0.31315	2.75293	1.93114e+06	-2.4199	0.00425892	2.01522	
1.335	453631.0	-2.36015	0.0378795	2.23384	60980.6	2.02733	0.158304	-0.427258	1.85926e+06	-2.35403	0.00296068	1.32082	
1.3825	421965.0	-2.2987	0.0076788	-1.17073	55644.4	2.03479	0.0928388	2.18351	1.76124e+06	-2.29185	0.00050354	1.5708	
1.43	385541.0	-2.24106	0.0523539	0.5162	50471.9	2.04203	0.295646	-0.241536	1.63918e+06	-2.23339	0.00108265	-1.4578	
1.4775	346664.0	-2.18825	0.0520565	-0.127227	45256.4	2.04639	0.106429	-2.3458	1.50096e+06	-2.17956	0.00225087	1.35213	
1.525	305713.0	-2.13953	0.00443606	-2.70949	40212.1	2.05002	0.233867	-2.78951	1.34788e+06	-2.12978	0.00379205	1.63522	
1.5725	264169.0	-2.0956	0.0227117	3.1174	35494.7	2.05274	0.447317	-3.04456	1.18626e+06	-2.08463	0.00134416	-2.25972	
1.62	222574.0	-2.05513	0.0450489	3.12669	31095.9	2.05503	0.175058	-3.09804	1.01707e+06	-2.04259	0.00133756	1.09695	
1.6675	181491.0	-2.01795	0.00734992	2.90266	27058.5	2.05655	0.0309777	2.43828	844094.0	-2.00335	0.000328684	1.19029	
1.715	141728.0	-1.98363	0.0687545	-0.136467	23345.3	2.05654	0.0489115	2.19714	670396.0	-1.9661	0.000521485	-2.78282	
1.7625	103482.0	-1.95091	0.0289758	3.08574	19965.3	2.05594	0.181648	-3.05597	497367.0	-1.92898	0.00168815	0.86217	
1.81	67095.5	-1.91796	0.0210177	-0.088688	17057.2	2.0571	0.0414834	0.160137	327374.0	-1.88763	0.0004767	-0.694738	
1.8575	32774.4	-1.87156	0.0211557	0.122924	14436.7	2.05836	0.124675	-3.03236	161596.0	-1.81733	0.00221163	0.488334	
1.905	1558.03	-0.697139	0.0255882	-3.01724	12232.6	2.06406	0.227783	0.0479653	14679.7	-0.344919	0.00012207	0.0	
1.9525	29256.7	1.21702	0.0412164	-0.112783	10240.7	2.07022	0.0860439	-2.93843	153667.0	1.17973	0.000610352	-0.643501	
2.0	56565.3	1.25839	0.0373936	-0.0931721	8582.2	2.08511	0.0654829	2.12056	298576.0	1.24448	6.10352e-05	-1.5708	
