VARIABLES="Time (s)"
"AddedMass 1" "IRF 1"
"AddedMass 2" "IRF 2"
"AddedMass 3" "IRF 3"
"AddedMass 4" "IRF 4"
"AddedMass 5" "IRF 5"
"AddedMass 6" "IRF 6"
Zone t="DoF 1",I=	100,F=POINT
 0.0  1.09644e+06  -329465.0  0.00161937  -0.000347347  -0.00301714  -0.00179442  0.00478856  0.00330525  3.56281e+06  -1.43862e+06  0.0029508  -0.000639403 
 0.1  1.09644e+06  -325801.0  0.00161937  -0.000345473  -0.00301714  -0.0017863  0.00478856  0.00326535  3.56281e+06  -1.42195e+06  0.0029508  -0.000631689 
 0.2  1.09644e+06  -314905.0  0.00161937  -0.000339884  -0.00301714  -0.00176209  0.00478856  0.00314671  3.56281e+06  -1.37235e+06  0.0029508  -0.000608754 
 0.3  1.09644e+06  -297054.0  0.00161937  -0.000330683  -0.00301714  -0.0017222  0.00478856  0.00295243  3.56281e+06  -1.29114e+06  0.0029508  -0.000571219 
 0.4  1.09644e+06  -272703.0  0.00161937  -0.000318039  -0.00301714  -0.00166734  0.00478856  0.00268758  3.56281e+06  -1.18046e+06  0.0029508  -0.000520098 
 0.5  1.09644e+06  -242472.0  0.00161937  -0.000302176  -0.00301714  -0.00159843  0.00478856  0.0023591  3.56281e+06  -1.04321e+06  0.0029508  -0.000456767 
 0.6  1.09644e+06  -207127.0  0.00161937  -0.000283371  -0.00301714  -0.00151666  0.00478856  0.00197553  3.56281e+06  -882990.0  0.0029508  -0.000382926 
 0.7  1.09644e+06  -167559.0  0.00161937  -0.00026194  -0.00301714  -0.00142339  0.00478856  0.00154684  3.56281e+06  -703960.0  0.0029508  -0.000300551 
 0.8  1.09644e+06  -124759.0  0.00161937  -0.000238232  -0.00301714  -0.00132013  0.00478856  0.00108412  3.56281e+06  -510760.0  0.0029508  -0.000211831 
 0.9  1.09644e+06  -79790.8  0.00161937  -0.000212611  -0.00301714  -0.00120854  0.00478856  0.00059928  3.56281e+06  -308352.0  0.0029508  -0.00011911 
 1.0  1.09644e+06  -33762.6  0.00161937  -0.000185449  -0.00301714  -0.00109035  0.00478856  0.000104744  3.56281e+06  -101893.0  0.0029508  -2.48174e-05 
 1.1  1.09644e+06  12205.3  0.00161937  -0.000157113  -0.00301714  -0.000967301  0.00478856  -0.000386926  3.56281e+06  103420.0  0.0029508  6.86027e-05 
 1.2  1.09644e+06  57009.8  0.00161937  -0.000127953  -0.00301714  -0.000841161  0.00478856  -0.000863348  3.56281e+06  302486.0  0.0029508  0.00015876 
 1.3  1.09644e+06  99594.6  0.00161937  -9.82929e-05  -0.00301714  -0.000713628  0.00478856  -0.00131266  3.56281e+06  490446.0  0.0029508  0.000243386 
 1.4  1.09644e+06  138979.0  0.00161937  -6.84238e-05  -0.00301714  -0.000586309  0.00478856  -0.00172386  3.56281e+06  662811.0  0.0029508  0.000320397 
 1.5  1.09644e+06  174281.0  0.00161937  -3.85965e-05  -0.00301714  -0.000460688  0.00478856  -0.00208704  3.56281e+06  815587.0  0.0029508  0.000387953 
 1.6  1.09644e+06  204742.0  0.00161937  -9.01873e-06  -0.00301714  -0.000338083  0.00478856  -0.00239373  3.56281e+06  945371.0  0.0029508  0.000444505 
 1.7  1.09644e+06  229746.0  0.00161937  2.01467e-05  -0.00301714  -0.000219628  0.00478856  -0.00263705  3.56281e+06  1.04944e+06  0.0029508  0.000488838 
 1.8  1.09644e+06  248829.0  0.00161937  4.87799e-05  -0.00301714  -0.000106244  0.00478856  -0.00281189  3.56281e+06  1.12583e+06  0.0029508  0.000520098 
 1.9  1.09644e+06  261694.0  0.00161937  7.68009e-05  -0.00301714  1.36807e-06  0.00478856  -0.00291508  3.56281e+06  1.17333e+06  0.0029508  0.000537814 
 2.0  1.09644e+06  268211.0  0.00161937  0.000104163  -0.00301714  0.000102741  0.00478856  -0.00294537  3.56281e+06  1.19157e+06  0.0029508  0.000541903 
 2.1  1.09644e+06  268419.0  0.00161937  0.000130847  -0.00301714  0.000197636  0.00478856  -0.00290352  3.56281e+06  1.18094e+06  0.0029508  0.000532666 
 2.2  1.09644e+06  262522.0  0.00161937  0.000156846  -0.00301714  0.000286038  0.00478856  -0.0027922  3.56281e+06  1.14263e+06  0.0029508  0.000510771 
 2.3  1.09644e+06  250876.0  0.00161937  0.000182164  -0.00301714  0.000368141  0.00478856  -0.00261588  3.56281e+06  1.07852e+06  0.0029508  0.000477229 
 2.4  1.09644e+06  233978.0  0.00161937  0.000206797  -0.00301714  0.000444326  0.00478856  -0.00238074  3.56281e+06  991138.0  0.0029508  0.00043335 
 2.5  1.09644e+06  212446.0  0.00161937  0.000230724  -0.00301714  0.000515139  0.00478856  -0.0020944  3.56281e+06  883580.0  0.0029508  0.000380704 
 2.6  1.09644e+06  186999.0  0.00161937  0.000253897  -0.00301714  0.000581252  0.00478856  -0.00176572  3.56281e+06  759383.0  0.0029508  0.000321065 
 2.7  1.09644e+06  158436.0  0.00161937  0.000276233  -0.00301714  0.000643434  0.00478856  -0.00140449  3.56281e+06  622424.0  0.0029508  0.000256351 
 2.8  1.09644e+06  127608.0  0.00161937  0.000297603  -0.00301714  0.000702511  0.00478856  -0.0010212  3.56281e+06  476798.0  0.0029508  0.000188564 
 2.9  1.09644e+06  95393.3  0.00161937  0.000317827  -0.00301714  0.000759326  0.00478856  -0.000626663  3.56281e+06  326688.0  0.0029508  0.000119727 
 3.0  1.09644e+06  62673.4  0.00161937  0.000336673  -0.00301714  0.000814697  0.00478856  -0.000231725  3.56281e+06  176248.0  0.0029508  5.18161e-05 
 3.1  1.09644e+06  30305.6  0.00161937  0.000353853  -0.00301714  0.00086938  0.00478856  0.000153047  3.56281e+06  29478.6  0.0029508  -1.32942e-05 
 3.2  1.09644e+06  -898.74  0.00161937  0.00036903  -0.00301714  0.000924032  0.00478856  0.000517666  3.56281e+06  -109883.0  0.0029508  -7.38908e-05 
 3.3  1.09644e+06  -30196.5  0.00161937  0.000381818  -0.00301714  0.000979175  0.00478856  0.000853009  3.56281e+06  -238463.0  0.0029508  -0.000128471 
 3.4  1.09644e+06  -56931.5  0.00161937  0.000391795  -0.00301714  0.00103517  0.00478856  0.00115106  3.56281e+06  -353340.0  0.0029508  -0.000175784 
 3.5  1.09644e+06  -80549.2  0.00161937  0.000398515  -0.00301714  0.00109218  0.00478856  0.00140513  3.56281e+06  -452109.0  0.0029508  -0.000214865 
 3.6  1.09644e+06  -100610.0  0.00161937  0.000401519  -0.00301714  0.00115017  0.00478856  0.00161001  3.56281e+06  -532939.0  0.0029508  -0.000245058 
 3.7  1.09644e+06  -116795.0  0.00161937  0.00040035  -0.00301714  0.00120888  0.00478856  0.00176211  3.56281e+06  -594603.0  0.0029508  -0.000266028 
 3.8  1.09644e+06  -128912.0  0.00161937  0.000394577  -0.00301714  0.00126785  0.00478856  0.0018595  3.56281e+06  -636488.0  0.0029508  -0.000277761 
 3.9  1.09644e+06  -136895.0  0.00161937  0.000383806  -0.00301714  0.00132636  0.00478856  0.00190195  3.56281e+06  -658593.0  0.0029508  -0.000280558 
 4.0  1.09644e+06  -140799.0  0.00161937  0.000367706  -0.00301714  0.00138352  0.00478856  0.00189091  3.56281e+06  -661498.0  0.0029508  -0.00027501 
 4.1  1.09644e+06  -140796.0  0.00161937  0.00034602  -0.00301714  0.00143822  0.00478856  0.00182938  3.56281e+06  -646326.0  0.0029508  -0.000261974 
 4.2  1.09644e+06  -137158.0  0.00161937  0.000318589  -0.00301714  0.00148921  0.00478856  0.0017218  3.56281e+06  -614681.0  0.0029508  -0.000242529 
 4.3  1.09644e+06  -130250.0  0.00161937  0.000285362  -0.00301714  0.00153506  0.00478856  0.00157388  3.56281e+06  -568575.0  0.0029508  -0.000217935 
 4.4  1.09644e+06  -120512.0  0.00161937  0.000246415  -0.00301714  0.00157429  0.00478856  0.00139238  3.56281e+06  -510351.0  0.0029508  -0.000189578 
 4.5  1.09644e+06  -108440.0  0.00161937  0.000201954  -0.00301714  0.00160532  0.00478856  0.00118486  3.56281e+06  -442590.0  0.0029508  -0.000158922 
 4.6  1.09644e+06  -94568.0  0.00161937  0.000152325  -0.00301714  0.00162658  0.00478856  0.000959434  3.56281e+06  -368019.0  0.0029508  -0.000127443 
 4.7  1.09644e+06  -79450.9  0.00161937  9.80161e-05  -0.00301714  0.00163652  0.00478856  0.000724474  3.56281e+06  -289415.0  0.0029508  -9.65799e-05 
 4.8  1.09644e+06  -63644.3  0.00161937  3.9656e-05  -0.00301714  0.00163365  0.00478856  0.000488343  3.56281e+06  -209517.0  0.0029508  -6.76787e-05 
 4.9  1.09644e+06  -47687.0  0.00161937  -2.19946e-05  -0.00301714  0.00161664  0.00478856  0.000259116  3.56281e+06  -130934.0  0.0029508  -4.19407e-05 
 5.0  1.09644e+06  -32084.7  0.00161937  -8.60519e-05  -0.00301714  0.00158431  0.00478856  4.43162e-05  3.56281e+06  -56071.5  0.0029508  -2.03795e-05 
 5.1  1.09644e+06  -17295.4  0.00161937  -0.000151524  -0.00301714  0.00153568  0.00478856  -0.000149319  3.56281e+06  12943.2  0.0029508  -3.78361e-06 
 5.2  1.09644e+06  -3716.9  0.00161937  -0.000217329  -0.00301714  0.00147004  0.00478856  -0.000316048  3.56281e+06  74313.0  0.0029508  7.31072e-06 
 5.3  1.09644e+06  8322.43  0.00161937  -0.000282318  -0.00301714  0.00138697  0.00478856  -0.000451299  3.56281e+06  126614.0  0.0029508  1.26397e-05 
 5.4  1.09644e+06  18571.0  0.00161937  -0.0003453  -0.00301714  0.00128633  0.00478856  -0.000551796  3.56281e+06  168827.0  0.0029508  1.22186e-05 
 5.5  1.09644e+06  26857.4  0.00161937  -0.000405065  -0.00301714  0.00116836  0.00478856  -0.000615651  3.56281e+06  200348.0  0.0029508  6.34e-06 
 5.6  1.09644e+06  33091.7  0.00161937  -0.000460418  -0.00301714  0.0010336  0.00478856  -0.000642394  3.56281e+06  220985.0  0.0029508  -4.43966e-06 
 5.7  1.09644e+06  37263.4  0.00161937  -0.000510203  -0.00301714  0.000882964  0.00478856  -0.000632961  3.56281e+06  230948.0  0.0029508  -1.93228e-05 
 5.8  1.09644e+06  39436.8  0.00161937  -0.000553333  -0.00301714  0.00071772  0.00478856  -0.000589641  3.56281e+06  230812.0  0.0029508  -3.73038e-05 
 5.9  1.09644e+06  39743.9  0.00161937  -0.000588817  -0.00301714  0.000539458  0.00478856  -0.000515961  3.56281e+06  221482.0  0.0029508  -5.72099e-05 
 6.0  1.09644e+06  38375.7  0.00161937  -0.000615785  -0.00301714  0.000350089  0.00478856  -0.000416546  3.56281e+06  204142.0  0.0029508  -7.77483e-05 
 6.1  1.09644e+06  35571.3  0.00161937  -0.000633513  -0.00301714  0.000151812  0.00478856  -0.00029693  3.56281e+06  180191.0  0.0029508  -9.75594e-05 
 6.2  1.09644e+06  31605.9  0.00161937  -0.00064144  -0.00301714  -5.29205e-05  0.00478856  -0.000163346  3.56281e+06  151189.0  0.0029508  -0.000115272 
 6.3  1.09644e+06  26778.4  0.00161937  -0.000639184  -0.00301714  -0.000261443  0.00478856  -2.24923e-05  3.56281e+06  118781.0  0.0029508  -0.000129562 
 6.4  1.09644e+06  21398.7  0.00161937  -0.000626556  -0.00301714  -0.000470927  0.00478856  0.000118727  3.56281e+06  84638.8  0.0029508  -0.000139205 
 6.5  1.09644e+06  15774.8  0.00161937  -0.000603562  -0.00301714  -0.000678431  0.00478856  0.000253451  3.56281e+06  50391.0  0.0029508  -0.000143135 
 6.6  1.09644e+06  10201.0  0.00161937  -0.000570413  -0.00301714  -0.000880958  0.00478856  0.000375115  3.56281e+06  17565.3  0.0029508  -0.000140488 
 6.7  1.09644e+06  4947.46  0.00161937  -0.000527512  -0.00301714  -0.00107551  0.00478856  0.000477696  3.56281e+06  -12464.8  0.0029508  -0.000130645 
 6.8  1.09644e+06  250.51  0.00161937  -0.000475459  -0.00301714  -0.00125916  0.00478856  0.000555927  3.56281e+06  -38525.7  0.0029508  -0.000113268 
 6.9  1.09644e+06  -3694.84  0.00161937  -0.00041503  -0.00301714  -0.00142907  0.00478856  0.000605498  3.56281e+06  -59680.5  0.0029508  -8.83199e-05 
 7.0  1.09644e+06  -6740.39  0.00161937  -0.000347165  -0.00301714  -0.00158262  0.00478856  0.00062321  3.56281e+06  -75252.7  0.0029508  -5.60777e-05 
 7.1  1.09644e+06  -8788.4  0.00161937  -0.000272951  -0.00301714  -0.00171738  0.00478856  0.000607096  3.56281e+06  -84842.3  0.0029508  -1.71363e-05 
 7.2  1.09644e+06  -9793.04  0.00161937  -0.000193597  -0.00301714  -0.00183123  0.00478856  0.0005565  3.56281e+06  -88327.8  0.0029508  2.76042e-05 
 7.3  1.09644e+06  -9759.49  0.00161937  -0.000110413  -0.00301714  -0.00192235  0.00478856  0.0004721  3.56281e+06  -85858.7  0.0029508  7.69584e-05 
 7.4  1.09644e+06  -8741.42  0.00161937  -2.4781e-05  -0.00301714  -0.0019893  0.00478856  0.000355895  3.56281e+06  -77837.8  0.0029508  0.00012949 
 7.5  1.09644e+06  -6836.3  0.00161937  6.18696e-05  -0.00301714  -0.00203103  0.00478856  0.000211138  3.56281e+06  -64893.7  0.0029508  0.000183556 
 7.6  1.09644e+06  -4179.46  0.00161937  0.000148092  -0.00301714  -0.00204689  0.00478856  4.22301e-05  3.56281e+06  -47846.0  0.0029508  0.000237353 
 7.7  1.09644e+06  -936.683  0.00161937  0.000232445  -0.00301714  -0.00203668  0.00478856  -0.000145434  3.56281e+06  -27664.4  0.0029508  0.000288984 
 7.8  1.09644e+06  2704.32  0.00161937  0.000313521  -0.00301714  -0.00200063  0.00478856  -0.000345648  3.56281e+06  -5422.3  0.0029508  0.000336515 
 7.9  1.09644e+06  6542.61  0.00161937  0.000389973  -0.00301714  -0.0019394  0.00478856  -0.000551612  3.56281e+06  17750.9  0.0029508  0.000378048 
 8.0  1.09644e+06  10373.2  0.00161937  0.000460534  -0.00301714  -0.00185409  0.00478856  -0.000756164  3.56281e+06  40718.4  0.0029508  0.000411787 
 8.1  1.09644e+06  13996.1  0.00161937  0.000524039  -0.00301714  -0.00174617  0.00478856  -0.000952036  3.56281e+06  62383.9  0.0029508  0.000436104 
 8.2  1.09644e+06  17224.8  0.00161937  0.000579441  -0.00301714  -0.00161752  0.00478856  -0.0011321  3.56281e+06  81735.6  0.0029508  0.000449603 
 8.3  1.09644e+06  19893.8  0.00161937  0.000625832  -0.00301714  -0.00147033  0.00478856  -0.00128964  3.56281e+06  97886.5  0.0029508  0.000451179 
 8.4  1.09644e+06  21865.5  0.00161937  0.000662449  -0.00301714  -0.00130708  0.00478856  -0.00141855  3.56281e+06  110107.0  0.0029508  0.000440062 
 8.5  1.09644e+06  23035.2  0.00161937  0.000688687  -0.00301714  -0.00113053  0.00478856  -0.00151361  3.56281e+06  117851.0  0.0029508  0.000415861 
 8.6  1.09644e+06  23334.7  0.00161937  0.000704106  -0.00301714  -0.000943606  0.00478856  -0.00157062  3.56281e+06  120774.0  0.0029508  0.000378587 
 8.7  1.09644e+06  22734.9  0.00161937  0.000708435  -0.00301714  -0.000749367  0.00478856  -0.00158657  3.56281e+06  118746.0  0.0029508  0.000328675 
 8.8  1.09644e+06  21245.9  0.00161937  0.000701575  -0.00301714  -0.000550957  0.00478856  -0.00155979  3.56281e+06  111845.0  0.0029508  0.000266973 
 8.9  1.09644e+06  18916.3  0.00161937  0.000683594  -0.00301714  -0.000351536  0.00478856  -0.00148997  3.56281e+06  100355.0  0.0029508  0.000194744 
 9.0  1.09644e+06  15829.9  0.00161937  0.000654731  -0.00301714  -0.000154217  0.00478856  -0.00137821  3.56281e+06  84750.7  0.0029508  0.000113628 
 9.1  1.09644e+06  12102.3  0.00161937  0.000615389  -0.00301714  3.79941e-05  0.00478856  -0.00122696  3.56281e+06  65669.0  0.0029508  2.56073e-05 
 9.2  1.09644e+06  7875.3  0.00161937  0.000566126  -0.00301714  0.000222242  0.00478856  -0.00104  3.56281e+06  43885.1  0.0029508  -6.7044e-05 
 9.3  1.09644e+06  3310.53  0.00161937  0.000507652  -0.00301714  0.000395891  0.00478856  -0.000822276  3.56281e+06  20275.4  0.0029508  -0.000161828 
 9.4  1.09644e+06  -1416.84  0.00161937  0.000440819  -0.00301714  0.000556557  0.00478856  -0.000579766  3.56281e+06  -4217.01  0.0029508  -0.000256085 
 9.5  1.09644e+06  -6125.96  0.00161937  0.000366609  -0.00301714  0.000702156  0.00478856  -0.00031927  3.56281e+06  -28623.8  0.0029508  -0.000347083 
 9.6  1.09644e+06  -10637.7  0.00161937  0.000286122  -0.00301714  0.000830938  0.00478856  -4.81905e-05  3.56281e+06  -51990.9  0.0029508  -0.000432094 
 9.7  1.09644e+06  -14781.5  0.00161937  0.00020057  -0.00301714  0.000941508  0.00478856  0.000225705  3.56281e+06  -73414.7  0.0029508  -0.000508477 
 9.8  1.09644e+06  -18402.4  0.00161937  0.000111252  -0.00301714  0.00103285  0.00478856  0.000494552  3.56281e+06  -92079.0  0.0029508  -0.000573768 
 9.9  1.09644e+06  -21366.9  0.00161937  1.95511e-05  -0.00301714  0.00110434  0.00478856  0.000750644  3.56281e+06  -107285.0  0.0029508  -0.000625755 
Zone t="DoF 2",I=	100,F=POINT
 0.0  0.00125099  5.08653e-05  1.09644e+06  -329465.0  0.000677056  -0.000135094  -3.56281e+06  1.43862e+06  -0.00546069  0.000286923  -0.00024969  -0.0015061 
 0.1  0.00125099  5.40166e-05  1.09644e+06  -325801.0  0.000677056  -0.00013385  -3.56281e+06  1.42195e+06  -0.00546069  0.000271251  -0.00024969  -0.00149204 
 0.2  0.00125099  6.33071e-05  1.09644e+06  -314905.0  0.000677056  -0.000130147  -3.56281e+06  1.37235e+06  -0.00546069  0.000225027  -0.00024969  -0.00145018 
 0.3  0.00125099  7.82528e-05  1.09644e+06  -297054.0  0.000677056  -0.000124069  -3.56281e+06  1.29114e+06  -0.00546069  0.000150598  -0.00024969  -0.00138139 
 0.4  0.00125099  9.8068e-05  1.09644e+06  -272703.0  0.000677056  -0.000115752  -3.56281e+06  1.18046e+06  -0.00546069  5.17563e-05  -0.00024969  -0.00128711 
 0.5  0.00125099  0.000121697  1.09644e+06  -242472.0  0.000677056  -0.000105383  -3.56281e+06  1.04321e+06  -0.00546069  -6.64191e-05  -0.00024969  -0.00116931 
 0.6  0.00125099  0.000147853  1.09644e+06  -207127.0  0.000677056  -9.31944e-05  -3.56281e+06  882990.0  -0.00546069  -0.000197794  -0.00024969  -0.00103045 
 0.7  0.00125099  0.000175074  1.09644e+06  -167559.0  0.000677056  -7.94574e-05  -3.56281e+06  703960.0  -0.00546069  -0.000335448  -0.00024969  -0.000873436 
 0.8  0.00125099  0.000201775  1.09644e+06  -124759.0  0.000677056  -6.4475e-05  -3.56281e+06  510760.0  -0.00546069  -0.000471981  -0.00024969  -0.000701513 
 0.9  0.00125099  0.000226317  1.09644e+06  -79790.8  0.000677056  -4.85748e-05  -3.56281e+06  308352.0  -0.00546069  -0.000599849  -0.00024969  -0.00051824 
 1.0  0.00125099  0.000247068  1.09644e+06  -33762.6  0.000677056  -3.21008e-05  -3.56281e+06  101893.0  -0.00546069  -0.000711702  -0.00024969  -0.000327384 
 1.1  0.00125099  0.000262477  1.09644e+06  12205.3  0.000677056  -1.54042e-05  -3.56281e+06  -103420.0  -0.00546069  -0.000800725  -0.00024969  -0.000132847 
 1.2  0.00125099  0.00027113  1.09644e+06  57009.8  0.000677056  1.16518e-06  -3.56281e+06  -302486.0  -0.00546069  -0.000860952  -0.00024969  6.14273e-05 
 1.3  0.00125099  0.00027182  1.09644e+06  99594.6  0.000677056  1.72671e-05  -3.56281e+06  -490446.0  -0.00546069  -0.000887557  -0.00024969  0.000251538 
 1.4  0.00125099  0.000263594  1.09644e+06  138979.0  0.000677056  3.25796e-05  -3.56281e+06  -662811.0  -0.00546069  -0.000877092  -0.00024969  0.00043371 
 1.5  0.00125099  0.000245801  1.09644e+06  174281.0  0.000677056  4.68069e-05  -3.56281e+06  -815586.0  -0.00546069  -0.000827675  -0.00024969  0.000604384 
 1.6  0.00125099  0.000218127  1.09644e+06  204742.0  0.000677056  5.96855e-05  -3.56281e+06  -945371.0  -0.00546069  -0.000739112  -0.00024969  0.000760285 
 1.7  0.00125099  0.000180619  1.09644e+06  229746.0  0.000677056  7.09911e-05  -3.56281e+06  -1.04944e+06  -0.00546069  -0.000612947  -0.00024969  0.0008985 
 1.8  0.00125099  0.000133694  1.09644e+06  248829.0  0.000677056  8.05426e-05  -3.56281e+06  -1.12583e+06  -0.00546069  -0.000452448  -0.00024969  0.00101654 
 1.9  0.00125099  7.81363e-05  1.09644e+06  261694.0  0.000677056  8.82063e-05  -3.56281e+06  -1.17333e+06  -0.00546069  -0.000262507  -0.00024969  0.00111237 
 2.0  0.00125099  1.50837e-05  1.09644e+06  268211.0  0.000677056  9.38976e-05  -3.56281e+06  -1.19157e+06  -0.00546069  -4.94818e-05  -0.00024969  0.0011845 
 2.1  0.00125099  -5.40044e-05  1.09644e+06  268419.0  0.000677056  9.75821e-05  -3.56281e+06  -1.18094e+06  -0.00546069  0.000179035  -0.00024969  0.00123195 
 2.2  0.00125099  -0.000127385  1.09644e+06  262522.0  0.000677056  9.92754e-05  -3.56281e+06  -1.14263e+06  -0.00546069  0.000414498  -0.00024969  0.00125432 
 2.3  0.00125099  -0.000203085  1.09644e+06  250876.0  0.000677056  9.90406e-05  -3.56281e+06  -1.07852e+06  -0.00546069  0.00064774  -0.00024969  0.00125175 
 2.4  0.00125099  -0.00027896  1.09644e+06  233978.0  0.000677056  9.69855e-05  -3.56281e+06  -991138.0  -0.00546069  0.00086934  -0.00024969  0.00122493 
 2.5  0.00125099  -0.000352764  1.09644e+06  212446.0  0.000677056  9.32584e-05  -3.56281e+06  -883580.0  -0.00546069  0.00106999  -0.00024969  0.0011751 
 2.6  0.00125099  -0.000422218  1.09644e+06  186999.0  0.000677056  8.80421e-05  -3.56281e+06  -759383.0  -0.00546069  0.00124091  -0.00024969  0.00110394 
 2.7  0.00125099  -0.000485087  1.09644e+06  158436.0  0.000677056  8.15489e-05  -3.56281e+06  -622425.0  -0.00546069  0.00137418  -0.00024969  0.00101362 
 2.8  0.00125099  -0.000539256  1.09644e+06  127608.0  0.000677056  7.40123e-05  -3.56281e+06  -476798.0  -0.00546069  0.00146312  -0.00024969  0.000906655 
 2.9  0.00125099  -0.000582798  1.09644e+06  95393.3  0.000677056  6.56804e-05  -3.56281e+06  -326688.0  -0.00546069  0.0015026  -0.00024969  0.000785895 
 3.0  0.00125099  -0.000614041  1.09644e+06  62673.4  0.000677056  5.68086e-05  -3.56281e+06  -176248.0  -0.00546069  0.00148925  -0.00024969  0.000654429 
 3.1  0.00125099  -0.000631629  1.09644e+06  30305.6  0.000677056  4.76512e-05  -3.56281e+06  -29478.7  -0.00546069  0.00142169  -0.00024969  0.000515516 
 3.2  0.00125099  -0.00063457  1.09644e+06  -898.747  0.000677056  3.84547e-05  -3.56281e+06  109883.0  -0.00546069  0.00130063  -0.00024969  0.000372493 
 3.3  0.00125099  -0.000622276  1.09644e+06  -30196.5  0.000677056  2.94507e-05  -3.56281e+06  238463.0  -0.00546069  0.00112889  -0.00024969  0.000228706 
 3.4  0.00125099  -0.000594586  1.09644e+06  -56931.5  0.000677056  2.08492e-05  -3.56281e+06  353340.0  -0.00546069  0.000911352  -0.00024969  8.7416e-05 
 3.5  0.00125099  -0.00055178  1.09644e+06  -80549.2  0.000677056  1.2834e-05  -3.56281e+06  452109.0  -0.00546069  0.000654857  -0.00024969  -4.82686e-05 
 3.6  0.00125099  -0.000494579  1.09644e+06  -100610.0  0.000677056  5.55726e-06  -3.56281e+06  532939.0  -0.00546069  0.000367951  -0.00024969  -0.000175472 
 3.7  0.00125099  -0.000424128  1.09644e+06  -116795.0  0.000677056  -8.63067e-07  -3.56281e+06  594603.0  -0.00546069  6.06347e-05  -0.00024969  -0.000291614 
 3.8  0.00125099  -0.000341965  1.09644e+06  -128912.0  0.000677056  -6.346e-06  -3.56281e+06  636488.0  -0.00546069  -0.000256  -0.00024969  -0.000394468 
 3.9  0.00125099  -0.000249984  1.09644e+06  -136895.0  0.000677056  -1.08482e-05  -3.56281e+06  658593.0  -0.00546069  -0.000570155  -0.00024969  -0.000482211 
 4.0  0.00125099  -0.000150381  1.09644e+06  -140799.0  0.000677056  -1.43636e-05  -3.56281e+06  661498.0  -0.00546069  -0.000869763  -0.00024969  -0.000553458 
 4.1  0.00125099  -4.55878e-05  1.09644e+06  -140796.0  0.000677056  -1.69223e-05  -3.56281e+06  646326.0  -0.00546069  -0.00114294  -0.00024969  -0.000607288 
 4.2  0.00125099  6.17919e-05  1.09644e+06  -137158.0  0.000677056  -1.85872e-05  -3.56281e+06  614681.0  -0.00546069  -0.00137844  -0.00024969  -0.000643253 
 4.3  0.00125099  0.000169061  1.09644e+06  -130250.0  0.000677056  -1.9451e-05  -3.56281e+06  568575.0  -0.00546069  -0.0015661  -0.00024969  -0.000661385 
 4.4  0.00125099  0.000273506  1.09644e+06  -120512.0  0.000677056  -1.9631e-05  -3.56281e+06  510351.0  -0.00546069  -0.00169725  -0.00024969  -0.000662174 
 4.5  0.00125099  0.000372477  1.09644e+06  -108440.0  0.000677056  -1.92639e-05  -3.56281e+06  442590.0  -0.00546069  -0.00176507  -0.00024969  -0.000646548 
 4.6  0.00125099  0.000463462  1.09644e+06  -94568.1  0.000677056  -1.84997e-05  -3.56281e+06  368019.0  -0.00546069  -0.00176492  -0.00024969  -0.000615837 
 4.7  0.00125099  0.00054416  1.09644e+06  -79450.9  0.000677056  -1.74958e-05  -3.56281e+06  289415.0  -0.00546069  -0.00169454  -0.00024969  -0.000571722 
 4.8  0.00125099  0.000612546  1.09644e+06  -63644.2  0.000677056  -1.64098e-05  -3.56281e+06  209517.0  -0.00546069  -0.00155421  -0.00024969  -0.000516186 
 4.9  0.00125099  0.000666928  1.09644e+06  -47687.0  0.000677056  -1.53939e-05  -3.56281e+06  130935.0  -0.00546069  -0.00134681  -0.00024969  -0.000451446 
 5.0  0.00125099  0.000705992  1.09644e+06  -32084.7  0.000677056  -1.4588e-05  -3.56281e+06  56071.7  -0.00546069  -0.00107776  -0.00024969  -0.000379885 
 5.1  0.00125099  0.000728838  1.09644e+06  -17295.5  0.000677056  -1.41147e-05  -3.56281e+06  -12943.1  -0.00546069  -0.000754933  -0.00024969  -0.000303987 
 5.2  0.00125099  0.000735001  1.09644e+06  -3716.94  0.000677056  -1.40744e-05  -3.56281e+06  -74312.8  -0.00546069  -0.000388361  -0.00024969  -0.000226257 
 5.3  0.00125099  0.00072446  1.09644e+06  8322.43  0.000677056  -1.45409e-05  -3.56281e+06  -126614.0  -0.00546069  1.00048e-05  -0.00024969  -0.000149154 
 5.4  0.00125099  0.000697631  1.09644e+06  18570.9  0.000677056  -1.55586e-05  -3.56281e+06  -168827.0  -0.00546069  0.000426726  -0.00024969  -7.50187e-05 
 5.5  0.00125099  0.000655353  1.09644e+06  26857.4  0.000677056  -1.71409e-05  -3.56281e+06  -200348.0  -0.00546069  0.000847307  -0.00024969  -6.01075e-06 
 5.6  0.00125099  0.000598856  1.09644e+06  33091.7  0.000677056  -1.92687e-05  -3.56281e+06  -220985.0  -0.00546069  0.00125669  -0.00024969  5.59493e-05 
 5.7  0.00125099  0.000529717  1.09644e+06  37263.4  0.000677056  -2.18918e-05  -3.56281e+06  -230948.0  -0.00546069  0.00163977  -0.00024969  0.000109231 
 5.8  0.00125099  0.000449816  1.09644e+06  39436.8  0.000677056  -2.493e-05  -3.56281e+06  -230812.0  -0.00546069  0.00198194  -0.00024969  0.000152532 
 5.9  0.00125099  0.00036127  1.09644e+06  39743.9  0.000677056  -2.82759e-05  -3.56281e+06  -221482.0  -0.00546069  0.00226963  -0.00024969  0.000184911 
 6.0  0.00125099  0.000266373  1.09644e+06  38375.7  0.000677056  -3.17993e-05  -3.56281e+06  -204142.0  -0.00546069  0.00249078  -0.00024969  0.000205806 
 6.1  0.00125099  0.000167529  1.09644e+06  35571.3  0.000677056  -3.53515e-05  -3.56281e+06  -180191.0  -0.00546069  0.00263531  -0.00024969  0.000215042 
 6.2  0.00125099  6.71778e-05  1.09644e+06  31605.9  0.000677056  -3.8771e-05  -3.56281e+06  -151189.0  -0.00546069  0.00269552  -0.00024969  0.000212821 
 6.3  0.00125099  -3.22707e-05  1.09644e+06  26778.4  0.000677056  -4.18899e-05  -3.56281e+06  -118781.0  -0.00546069  0.0026664  -0.00024969  0.000199716 
 6.4  0.00125099  -0.000128504  1.09644e+06  21398.7  0.000677056  -4.45398e-05  -3.56281e+06  -84638.8  -0.00546069  0.00254585  -0.00024969  0.000176638 
 6.5  0.00125099  -0.000219367  1.09644e+06  15774.8  0.000677056  -4.65594e-05  -3.56281e+06  -50391.0  -0.00546069  0.00233482  -0.00024969  0.000144799 
 6.6  0.00125099  -0.000302918  1.09644e+06  10201.0  0.000677056  -4.78e-05  -3.56281e+06  -17565.3  -0.00546069  0.00203735  -0.00024969  0.000105672 
 6.7  0.00125099  -0.000377475  1.09644e+06  4947.47  0.000677056  -4.81326e-05  -3.56281e+06  12464.7  -0.00546069  0.00166044  -0.00024969  6.09343e-05 
 6.8  0.00125099  -0.00044165  1.09644e+06  250.517  0.000677056  -4.74528e-05  -3.56281e+06  38525.6  -0.00546069  0.00121395  -0.00024969  1.24128e-05 
 6.9  0.00125099  -0.000494381  1.09644e+06  -3694.83  0.000677056  -4.56865e-05  -3.56281e+06  59680.3  -0.00546069  0.000710229  -0.00024969  -3.79777e-05 
 7.0  0.00125099  -0.000534942  1.09644e+06  -6740.37  0.000677056  -4.27932e-05  -3.56281e+06  75252.5  -0.00546069  0.00016379  -0.00024969  -8.82964e-05 
 7.1  0.00125099  -0.000562953  1.09644e+06  -8788.4  0.000677056  -3.87691e-05  -3.56281e+06  84842.1  -0.00546069  -0.000409146  -0.00024969  -0.00013664 
 7.2  0.00125099  -0.000578371  1.09644e+06  -9793.03  0.000677056  -3.3649e-05  -3.56281e+06  88327.6  -0.00546069  -0.000991176  -0.00024969  -0.000181204 
 7.3  0.00125099  -0.000581475  1.09644e+06  -9759.47  0.000677056  -2.75064e-05  -3.56281e+06  85858.6  -0.00546069  -0.00156426  -0.00024969  -0.000220333 
 7.4  0.00125099  -0.000572844  1.09644e+06  -8741.4  0.000677056  -2.04522e-05  -3.56281e+06  77837.7  -0.00546069  -0.00211033  -0.00024969  -0.000252578 
 7.5  0.00125099  -0.000553317  1.09644e+06  -6836.28  0.000677056  -1.26328e-05  -3.56281e+06  64893.5  -0.00546069  -0.00261188  -0.00024969  -0.000276734 
 7.6  0.00125099  -0.000523963  1.09644e+06  -4179.43  0.000677056  -4.22636e-06  -3.56281e+06  47845.8  -0.00546069  -0.00305251  -0.00024969  -0.000291881 
 7.7  0.00125099  -0.000486027  1.09644e+06  -936.658  0.000677056  4.56217e-06  -3.56281e+06  27664.2  -0.00546069  -0.00341753  -0.00024969  -0.0002974 
 7.8  0.00125099  -0.000440887  1.09644e+06  2704.35  0.000677056  1.35069e-05  -3.56281e+06  5422.16  -0.00546069  -0.00369442  -0.00024969  -0.000292997 
 7.9  0.00125099  -0.000390006  1.09644e+06  6542.64  0.000677056  2.23677e-05  -3.56281e+06  -17751.0  -0.00546069  -0.00387325  -0.00024969  -0.000278701 
 8.0  0.00125099  -0.000334878  1.09644e+06  10373.2  0.000677056  3.08977e-05  -3.56281e+06  -40718.5  -0.00546069  -0.00394706  -0.00024969  -0.000254865 
 8.1  0.00125099  -0.000276986  1.09644e+06  13996.1  0.000677056  3.88512e-05  -3.56281e+06  -62384.0  -0.00546069  -0.00391207  -0.00024969  -0.000222142 
 8.2  0.00125099  -0.000217754  1.09644e+06  17224.8  0.000677056  4.59916e-05  -3.56281e+06  -81735.7  -0.00546069  -0.00376781  -0.00024969  -0.000181468 
 8.3  0.00125099  -0.00015851  1.09644e+06  19893.8  0.000677056  5.20996e-05  -3.56281e+06  -97886.5  -0.00546069  -0.0035172  -0.00024969  -0.000134021 
 8.4  0.00125099  -0.000100453  1.09644e+06  21865.6  0.000677056  5.69806e-05  -3.56281e+06  -110107.0  -0.00546069  -0.00316642  -0.00024969  -8.11867e-05 
 8.5  0.00125099  -4.46293e-05  1.09644e+06  23035.2  0.000677056  6.04718e-05  -3.56281e+06  -117851.0  -0.00546069  -0.00272475  -0.00024969  -2.45079e-05 
 8.6  0.00125099  8.09323e-06  1.09644e+06  23334.7  0.000677056  6.24485e-05  -3.56281e+06  -120774.0  -0.00546069  -0.00220426  -0.00024969  3.43668e-05 
 8.7  0.00125099  5.7028e-05  1.09644e+06  22734.9  0.000677056  6.2829e-05  -3.56281e+06  -118746.0  -0.00546069  -0.00161946  -0.00024969  9.37331e-05 
 8.8  0.00125099  0.000101679  1.09644e+06  21245.9  0.000677056  6.15785e-05  -3.56281e+06  -111845.0  -0.00546069  -0.000986802  -0.00024969  0.00015189 
 8.9  0.00125099  0.000141732  1.09644e+06  18916.3  0.000677056  5.87114e-05  -3.56281e+06  -100355.0  -0.00546069  -0.000324184  -0.00024969  0.000207188 
 9.0  0.00125099  0.000177048  1.09644e+06  15829.9  0.000677056  5.42924e-05  -3.56281e+06  -84750.6  -0.00546069  0.000349629  -0.00024969  0.000258081 
 9.1  0.00125099  0.000207642  1.09644e+06  12102.3  0.000677056  4.84354e-05  -3.56281e+06  -65668.9  -0.00546069  0.00101561  -0.00024969  0.000303177 