VARIABLES="w (rad/s)"
"abs(F	1	1)" "angle(F	1	1)"
"abs(F	1	2)" "angle(F	1	2)"
"abs(F	1	3)" "angle(F	1	3)"
"abs(F	1	4)" "angle(F	1	4)"
"abs(F	1	5)" "angle(F	1	5)"
"abs(F	1	6)" "angle(F	1	6)"
Zone t="FKforce - beta =	0.0",I=	1,F=POINT
0.1	4974.59	-3.13821	0.0781265	1.57705	485524.0	-1.5674	809207.0	-1.56574	1.61856e+06	1.56051	8283.49	0.00510053	
