VARIABLES="Time (s)"
"AddedMass 1" "IRF 1"
"AddedMass 2" "IRF 2"
"AddedMass 3" "IRF 3"
"AddedMass 4" "IRF 4"
"AddedMass 5" "IRF 5"
"AddedMass 6" "IRF 6"
Zone t="DoF 1",I=	100,F=POINT
 0.0  4.12809e+09  0.0  -4.34653e+10  0.0  -1.28804e+10  0.0  -1.42362e+11  0.0  2.70914e+10  0.0  -1.43736e+11  0.0 
 0.1  4.12809e+09  0.0  -4.34653e+10  0.0  -1.28804e+10  0.0  -1.42362e+11  0.0  2.70914e+10  0.0  -1.43736e+11  0.0 
 0.2  4.12809e+09  0.0  -4.34653e+10  0.0  -1.28804e+10  0.0  -1.42362e+11  0.0  2.70914e+10  0.0  -1.43736e+11  0.0 
 0.3  4.12809e+09  0.0  -4.34653e+10  0.0  -1.28804e+10  0.0  -1.42362e+11  0.0  2.70914e+10  0.0  -1.43736e+11  0.0 
 0.4  4.12809e+09  0.0  -4.34653e+10  0.0  -1.28804e+10  0.0  -1.42362e+11  0.0  2.70914e+10  0.0  -1.43736e+11  0.0 
 0.5  4.12809e+09  0.0  -4.34653e+10  0.0  -1.28804e+10  0.0  -1.42362e+11  0.0  2.70914e+10  0.0  -1.43736e+11  0.0 
 0.6  4.12809e+09  0.0  -4.34653e+10  0.0  -1.28804e+10  0.0  -1.42362e+11  0.0  2.70914e+10  0.0  -1.43736e+11  0.0 
 0.7  4.12809e+09  0.0  -4.34653e+10  0.0  -1.28804e+10  0.0  -1.42362e+11  0.0  2.70914e+10  0.0  -1.43736e+11  0.0 
 0.8  4.12809e+09  0.0  -4.34653e+10  0.0  -1.28804e+10  0.0  -1.42362e+11  0.0  2.70914e+10  0.0  -1.43736e+11  0.0 
 0.9  4.12809e+09  0.0  -4.34653e+10  0.0  -1.28804e+10  0.0  -1.42362e+11  0.0  2.70914e+10  0.0  -1.43736e+11  0.0 
 1.0  4.12809e+09  0.0  -4.34653e+10  0.0  -1.28804e+10  0.0  -1.42362e+11  0.0  2.70914e+10  0.0  -1.43736e+11  0.0 
 1.1  4.12809e+09  0.0  -4.34653e+10  0.0  -1.28804e+10  0.0  -1.42362e+11  0.0  2.70914e+10  0.0  -1.43736e+11  0.0 
 1.2  4.12809e+09  0.0  -4.34653e+10  0.0  -1.28804e+10  0.0  -1.42362e+11  0.0  2.70914e+10  0.0  -1.43736e+11  0.0 
 1.3  4.12809e+09  0.0  -4.34653e+10  0.0  -1.28804e+10  0.0  -1.42362e+11  0.0  2.70914e+10  0.0  -1.43736e+11  0.0 
 1.4  4.12809e+09  0.0  -4.34653e+10  0.0  -1.28804e+10  0.0  -1.42362e+11  0.0  2.70914e+10  0.0  -1.43736e+11  0.0 
 1.5  4.12809e+09  0.0  -4.34653e+10  0.0  -1.28804e+10  0.0  -1.42362e+11  0.0  2.70914e+10  0.0  -1.43736e+11  0.0 
 1.6  4.12809e+09  0.0  -4.34653e+10  0.0  -1.28804e+10  0.0  -1.42362e+11  0.0  2.70914e+10  0.0  -1.43736e+11  0.0 
 1.7  4.12809e+09  0.0  -4.34653e+10  0.0  -1.28804e+10  0.0  -1.42362e+11  0.0  2.70914e+10  0.0  -1.43736e+11  0.0 
 1.8  4.12809e+09  0.0  -4.34653e+10  0.0  -1.28804e+10  0.0  -1.42362e+11  0.0  2.70914e+10  0.0  -1.43736e+11  0.0 
 1.9  4.12809e+09  0.0  -4.34653e+10  0.0  -1.28804e+10  0.0  -1.42362e+11  0.0  2.70914e+10  0.0  -1.43736e+11  0.0 
 2.0  4.12809e+09  0.0  -4.34653e+10  0.0  -1.28804e+10  0.0  -1.42362e+11  0.0  2.70914e+10  0.0  -1.43736e+11  0.0 
 2.1  4.12809e+09  0.0  -4.34653e+10  0.0  -1.28804e+10  0.0  -1.42362e+11  0.0  2.70914e+10  0.0  -1.43736e+11  0.0 
 2.2  4.12809e+09  0.0  -4.34653e+10  0.0  -1.28804e+10  0.0  -1.42362e+11  0.0  2.70914e+10  0.0  -1.43736e+11  0.0 
 2.3  4.12809e+09  0.0  -4.34653e+10  0.0  -1.28804e+10  0.0  -1.42362e+11  0.0  2.70914e+10  0.0  -1.43736e+11  0.0 
 2.4  4.12809e+09  0.0  -4.34653e+10  0.0  -1.28804e+10  0.0  -1.42362e+11  0.0  2.70914e+10  0.0  -1.43736e+11  0.0 
 2.5  4.12809e+09  0.0  -4.34653e+10  0.0  -1.28804e+10  0.0  -1.42362e+11  0.0  2.70914e+10  0.0  -1.43736e+11  0.0 
 2.6  4.12809e+09  0.0  -4.34653e+10  0.0  -1.28804e+10  0.0  -1.42362e+11  0.0  2.70914e+10  0.0  -1.43736e+11  0.0 
 2.7  4.12809e+09  0.0  -4.34653e+10  0.0  -1.28804e+10  0.0  -1.42362e+11  0.0  2.70914e+10  0.0  -1.43736e+11  0.0 
 2.8  4.12809e+09  0.0  -4.34653e+10  0.0  -1.28804e+10  0.0  -1.42362e+11  0.0  2.70914e+10  0.0  -1.43736e+11  0.0 
 2.9  4.12809e+09  0.0  -4.34653e+10  0.0  -1.28804e+10  0.0  -1.42362e+11  0.0  2.70914e+10  0.0  -1.43736e+11  0.0 
 3.0  4.12809e+09  0.0  -4.34653e+10  0.0  -1.28804e+10  0.0  -1.42362e+11  0.0  2.70914e+10  0.0  -1.43736e+11  0.0 
 3.1  4.12809e+09  0.0  -4.34653e+10  0.0  -1.28804e+10  0.0  -1.42362e+11  0.0  2.70914e+10  0.0  -1.43736e+11  0.0 
 3.2  4.12809e+09  0.0  -4.34653e+10  0.0  -1.28804e+10  0.0  -1.42362e+11  0.0  2.70914e+10  0.0  -1.43736e+11  0.0 
 3.3  4.12809e+09  0.0  -4.34653e+10  0.0  -1.28804e+10  0.0  -1.42362e+11  0.0  2.70914e+10  0.0  -1.43736e+11  0.0 
 3.4  4.12809e+09  0.0  -4.34653e+10  0.0  -1.28804e+10  0.0  -1.42362e+11  0.0  2.70914e+10  0.0  -1.43736e+11  0.0 
 3.5  4.12809e+09  0.0  -4.34653e+10  0.0  -1.28804e+10  0.0  -1.42362e+11  0.0  2.70914e+10  0.0  -1.43736e+11  0.0 
 3.6  4.12809e+09  0.0  -4.34653e+10  0.0  -1.28804e+10  0.0  -1.42362e+11  0.0  2.70914e+10  0.0  -1.43736e+11  0.0 
 3.7  4.12809e+09  0.0  -4.34653e+10  0.0  -1.28804e+10  0.0  -1.42362e+11  0.0  2.70914e+10  0.0  -1.43736e+11  0.0 
 3.8  4.12809e+09  0.0  -4.34653e+10  0.0  -1.28804e+10  0.0  -1.42362e+11  0.0  2.70914e+10  0.0  -1.43736e+11  0.0 
 3.9  4.12809e+09  0.0  -4.34653e+10  0.0  -1.28804e+10  0.0  -1.42362e+11  0.0  2.70914e+10  0.0  -1.43736e+11  0.0 
 4.0  4.12809e+09  0.0  -4.34653e+10  0.0  -1.28804e+10  0.0  -1.42362e+11  0.0  2.70914e+10  0.0  -1.43736e+11  0.0 
 4.1  4.12809e+09  0.0  -4.34653e+10  0.0  -1.28804e+10  0.0  -1.42362e+11  0.0  2.70914e+10  0.0  -1.43736e+11  0.0 
 4.2  4.12809e+09  0.0  -4.34653e+10  0.0  -1.28804e+10  0.0  -1.42362e+11  0.0  2.70914e+10  0.0  -1.43736e+11  0.0 
 4.3  4.12809e+09  0.0  -4.34653e+10  0.0  -1.28804e+10  0.0  -1.42362e+11  0.0  2.70914e+10  0.0  -1.43736e+11  0.0 
 4.4  4.12809e+09  0.0  -4.34653e+10  0.0  -1.28804e+10  0.0  -1.42362e+11  0.0  2.70914e+10  0.0  -1.43736e+11  0.0 
 4.5  4.12809e+09  0.0  -4.34653e+10  0.0  -1.28804e+10  0.0  -1.42362e+11  0.0  2.70914e+10  0.0  -1.43736e+11  0.0 
 4.6  4.12809e+09  0.0  -4.34653e+10  0.0  -1.28804e+10  0.0  -1.42362e+11  0.0  2.70914e+10  0.0  -1.43736e+11  0.0 
 4.7  4.12809e+09  0.0  -4.34653e+10  0.0  -1.28804e+10  0.0  -1.42362e+11  0.0  2.70914e+10  0.0  -1.43736e+11  0.0 
 4.8  4.12809e+09  0.0  -4.34653e+10  0.0  -1.28804e+10  0.0  -1.42362e+11  0.0  2.70914e+10  0.0  -1.43736e+11  0.0 
 4.9  4.12809e+09  0.0  -4.34653e+10  0.0  -1.28804e+10  0.0  -1.42362e+11  0.0  2.70914e+10  0.0  -1.43736e+11  0.0 
 5.0  4.12809e+09  0.0  -4.34653e+10  0.0  -1.28804e+10  0.0  -1.42362e+11  0.0  2.70914e+10  0.0  -1.43736e+11  0.0 
 5.1  4.12809e+09  0.0  -4.34653e+10  0.0  -1.28804e+10  0.0  -1.42362e+11  0.0  2.70914e+10  0.0  -1.43736e+11  0.0 
 5.2  4.12809e+09  0.0  -4.34653e+10  0.0  -1.28804e+10  0.0  -1.42362e+11  0.0  2.70914e+10  0.0  -1.43736e+11  0.0 
 5.3  4.12809e+09  0.0  -4.34653e+10  0.0  -1.28804e+10  0.0  -1.42362e+11  0.0  2.70914e+10  0.0  -1.43736e+11  0.0 
 5.4  4.12809e+09  0.0  -4.34653e+10  0.0  -1.28804e+10  0.0  -1.42362e+11  0.0  2.70914e+10  0.0  -1.43736e+11  0.0 
 5.5  4.12809e+09  0.0  -4.34653e+10  0.0  -1.28804e+10  0.0  -1.42362e+11  0.0  2.70914e+10  0.0  -1.43736e+11  0.0 
 5.6  4.12809e+09  0.0  -4.34653e+10  0.0  -1.28804e+10  0.0  -1.42362e+11  0.0  2.70914e+10  0.0  -1.43736e+11  0.0 
 5.7  4.12809e+09  0.0  -4.34653e+10  0.0  -1.28804e+10  0.0  -1.42362e+11  0.0  2.70914e+10  0.0  -1.43736e+11  0.0 
 5.8  4.12809e+09  0.0  -4.34653e+10  0.0  -1.28804e+10  0.0  -1.42362e+11  0.0  2.70914e+10  0.0  -1.43736e+11  0.0 
 5.9  4.12809e+09  0.0  -4.34653e+10  0.0  -1.28804e+10  0.0  -1.42362e+11  0.0  2.70914e+10  0.0  -1.43736e+11  0.0 
 6.0  4.12809e+09  0.0  -4.34653e+10  0.0  -1.28804e+10  0.0  -1.42362e+11  0.0  2.70914e+10  0.0  -1.43736e+11  0.0 
 6.1  4.12809e+09  0.0  -4.34653e+10  0.0  -1.28804e+10  0.0  -1.42362e+11  0.0  2.70914e+10  0.0  -1.43736e+11  0.0 
 6.2  4.12809e+09  0.0  -4.34653e+10  0.0  -1.28804e+10  0.0  -1.42362e+11  0.0  2.70914e+10  0.0  -1.43736e+11  0.0 
 6.3  4.12809e+09  0.0  -4.34653e+10  0.0  -1.28804e+10  0.0  -1.42362e+11  0.0  2.70914e+10  0.0  -1.43736e+11  0.0 
 6.4  4.12809e+09  0.0  -4.34653e+10  0.0  -1.28804e+10  0.0  -1.42362e+11  0.0  2.70914e+10  0.0  -1.43736e+11  0.0 
 6.5  4.12809e+09  0.0  -4.34653e+10  0.0  -1.28804e+10  0.0  -1.42362e+11  0.0  2.70914e+10  0.0  -1.43736e+11  0.0 
 6.6  4.12809e+09  0.0  -4.34653e+10  0.0  -1.28804e+10  0.0  -1.42362e+11  0.0  2.70914e+10  0.0  -1.43736e+11  0.0 
 6.7  4.12809e+09  0.0  -4.34653e+10  0.0  -1.28804e+10  0.0  -1.42362e+11  0.0  2.70914e+10  0.0  -1.43736e+11  0.0 
 6.8  4.12809e+09  0.0  -4.34653e+10  0.0  -1.28804e+10  0.0  -1.42362e+11  0.0  2.70914e+10  0.0  -1.43736e+11  0.0 
 6.9  4.12809e+09  0.0  -4.34653e+10  0.0  -1.28804e+10  0.0  -1.42362e+11  0.0  2.70914e+10  0.0  -1.43736e+11  0.0 
 7.0  4.12809e+09  0.0  -4.34653e+10  0.0  -1.28804e+10  0.0  -1.42362e+11  0.0  2.70914e+10  0.0  -1.43736e+11  0.0 
 7.1  4.12809e+09  0.0  -4.34653e+10  0.0  -1.28804e+10  0.0  -1.42362e+11  0.0  2.70914e+10  0.0  -1.43736e+11  0.0 
 7.2  4.12809e+09  0.0  -4.34653e+10  0.0  -1.28804e+10  0.0  -1.42362e+11  0.0  2.70914e+10  0.0  -1.43736e+11  0.0 
 7.3  4.12809e+09  0.0  -4.34653e+10  0.0  -1.28804e+10  0.0  -1.42362e+11  0.0  2.70914e+10  0.0  -1.43736e+11  0.0 
 7.4  4.12809e+09  0.0  -4.34653e+10  0.0  -1.28804e+10  0.0  -1.42362e+11  0.0  2.70914e+10  0.0  -1.43736e+11  0.0 
 7.5  4.12809e+09  0.0  -4.34653e+10  0.0  -1.28804e+10  0.0  -1.42362e+11  0.0  2.70914e+10  0.0  -1.43736e+11  0.0 
 7.6  4.12809e+09  0.0  -4.34653e+10  0.0  -1.28804e+10  0.0  -1.42362e+11  0.0  2.70914e+10  0.0  -1.43736e+11  0.0 
 7.7  4.12809e+09  0.0  -4.34653e+10  0.0  -1.28804e+10  0.0  -1.42362e+11  0.0  2.70914e+10  0.0  -1.43736e+11  0.0 
 7.8  4.12809e+09  0.0  -4.34653e+10  0.0  -1.28804e+10  0.0  -1.42362e+11  0.0  2.70914e+10  0.0  -1.43736e+11  0.0 
 7.9  4.12809e+09  0.0  -4.34653e+10  0.0  -1.28804e+10  0.0  -1.42362e+11  0.0  2.70914e+10  0.0  -1.43736e+11  0.0 
 8.0  4.12809e+09  0.0  -4.34653e+10  0.0  -1.28804e+10  0.0  -1.42362e+11  0.0  2.70914e+10  0.0  -1.43736e+11  0.0 
 8.1  4.12809e+09  0.0  -4.34653e+10  0.0  -1.28804e+10  0.0  -1.42362e+11  0.0  2.70914e+10  0.0  -1.43736e+11  0.0 
 8.2  4.12809e+09  0.0  -4.34653e+10  0.0  -1.28804e+10  0.0  -1.42362e+11  0.0  2.70914e+10  0.0  -1.43736e+11  0.0 
 8.3  4.12809e+09  0.0  -4.34653e+10  0.0  -1.28804e+10  0.0  -1.42362e+11  0.0  2.70914e+10  0.0  -1.43736e+11  0.0 
 8.4  4.12809e+09  0.0  -4.34653e+10  0.0  -1.28804e+10  0.0  -1.42362e+11  0.0  2.70914e+10  0.0  -1.43736e+11  0.0 
 8.5  4.12809e+09  0.0  -4.34653e+10  0.0  -1.28804e+10  0.0  -1.42362e+11  0.0  2.70914e+10  0.0  -1.43736e+11  0.0 
 8.6  4.12809e+09  0.0  -4.34653e+10  0.0  -1.28804e+10  0.0  -1.42362e+11  0.0  2.70914e+10  0.0  -1.43736e+11  0.0 
 8.7  4.12809e+09  0.0  -4.34653e+10  0.0  -1.28804e+10  0.0  -1.42362e+11  0.0  2.70914e+10  0.0  -1.43736e+11  0.0 
 8.8  4.12809e+09  0.0  -4.34653e+10  0.0  -1.28804e+10  0.0  -1.42362e+11  0.0  2.70914e+10  0.0  -1.43736e+11  0.0 
 8.9  4.12809e+09  0.0  -4.34653e+10  0.0  -1.28804e+10  0.0  -1.42362e+11  0.0  2.70914e+10  0.0  -1.43736e+11  0.0 
 9.0  4.12809e+09  0.0  -4.34653e+10  0.0  -1.28804e+10  0.0  -1.42362e+11  0.0  2.70914e+10  0.0  -1.43736e+11  0.0 
 9.1  4.12809e+09  0.0  -4.34653e+10  0.0  -1.28804e+10  0.0  -1.42362e+11  0.0  2.70914e+10  0.0  -1.43736e+11  0.0 
 9.2  4.12809e+09  0.0  -4.34653e+10  0.0  -1.28804e+10  0.0  -1.42362e+11  0.0  2.70914e+10  0.0  -1.43736e+11  0.0 
 9.3  4.12809e+09  0.0  -4.34653e+10  0.0  -1.28804e+10  0.0  -1.42362e+11  0.0  2.70914e+10  0.0  -1.43736e+11  0.0 
 9.4  4.12809e+09  0.0  -4.34653e+10  0.0  -1.28804e+10  0.0  -1.42362e+11  0.0  2.70914e+10  0.0  -1.43736e+11  0.0 
 9.5  4.12809e+09  0.0  -4.34653e+10  0.0  -1.28804e+10  0.0  -1.42362e+11  0.0  2.70914e+10  0.0  -1.43736e+11  0.0 
 9.6  4.12809e+09  0.0  -4.34653e+10  0.0  -1.28804e+10  0.0  -1.42362e+11  0.0  2.70914e+10  0.0  -1.43736e+11  0.0 
 9.7  4.12809e+09  0.0  -4.34653e+10  0.0  -1.28804e+10  0.0  -1.42362e+11  0.0  2.70914e+10  0.0  -1.43736e+11  0.0 
 9.8  4.12809e+09  0.0  -4.34653e+10  0.0  -1.28804e+10  0.0  -1.42362e+11  0.0  2.70914e+10  0.0  -1.43736e+11  0.0 
 9.9  4.12809e+09  0.0  -4.34653e+10  0.0  -1.28804e+10  0.0  -1.42362e+11  0.0  2.70914e+10  0.0  -1.43736e+11  0.0 
Zone t="DoF 2",I=	100,F=POINT
 0.0  4.52399e+10  0.0  -6.26989e+09  0.0  2.60763e+10  0.0  2.90767e+10  0.0  -2.14981e+11  0.0  -9.99953e+10  0.0 
 0.1  4.52399e+10  0.0  -6.26989e+09  0.0  2.60763e+10  0.0  2.90767e+10  0.0  -2.14981e+11  0.0  -9.99953e+10  0.0 
 0.2  4.52399e+10  0.0  -6.26989e+09  0.0  2.60763e+10  0.0  2.90767e+10  0.0  -2.14981e+11  0.0  -9.99953e+10  0.0 
 0.3  4.52399e+10  0.0  -6.26989e+09  0.0  2.60763e+10  0.0  2.90767e+10  0.0  -2.14981e+11  0.0  -9.99953e+10  0.0 
 0.4  4.52399e+10  0.0  -6.26989e+09  0.0  2.60763e+10  0.0  2.90767e+10  0.0  -2.14981e+11  0.0  -9.99953e+10  0.0 
 0.5  4.52399e+10  0.0  -6.26989e+09  0.0  2.60763e+10  0.0  2.90767e+10  0.0  -2.14981e+11  0.0  -9.99953e+10  0.0 
 0.6  4.52399e+10  0.0  -6.26989e+09  0.0  2.60763e+10  0.0  2.90767e+10  0.0  -2.14981e+11  0.0  -9.99953e+10  0.0 
 0.7  4.52399e+10  0.0  -6.26989e+09  0.0  2.60763e+10  0.0  2.90767e+10  0.0  -2.14981e+11  0.0  -9.99953e+10  0.0 
 0.8  4.52399e+10  0.0  -6.26989e+09  0.0  2.60763e+10  0.0  2.90767e+10  0.0  -2.14981e+11  0.0  -9.99953e+10  0.0 
 0.9  4.52399e+10  0.0  -6.26989e+09  0.0  2.60763e+10  0.0  2.90767e+10  0.0  -2.14981e+11  0.0  -9.99953e+10  0.0 
 1.0  4.52399e+10  0.0  -6.26989e+09  0.0  2.60763e+10  0.0  2.90767e+10  0.0  -2.14981e+11  0.0  -9.99953e+10  0.0 
 1.1  4.52399e+10  0.0  -6.26989e+09  0.0  2.60763e+10  0.0  2.90767e+10  0.0  -2.14981e+11  0.0  -9.99953e+10  0.0 
 1.2  4.52399e+10  0.0  -6.26989e+09  0.0  2.60763e+10  0.0  2.90767e+10  0.0  -2.14981e+11  0.0  -9.99953e+10  0.0 
 1.3  4.52399e+10  0.0  -6.26989e+09  0.0  2.60763e+10  0.0  2.90767e+10  0.0  -2.14981e+11  0.0  -9.99953e+10  0.0 
 1.4  4.52399e+10  0.0  -6.26989e+09  0.0  2.60763e+10  0.0  2.90767e+10  0.0  -2.14981e+11  0.0  -9.99953e+10  0.0 
 1.5  4.52399e+10  0.0  -6.26989e+09  0.0  2.60763e+10  0.0  2.90767e+10  0.0  -2.14981e+11  0.0  -9.99953e+10  0.0 
 1.6  4.52399e+10  0.0  -6.26989e+09  0.0  2.60763e+10  0.0  2.90767e+10  0.0  -2.14981e+11  0.0  -9.99953e+10  0.0 
 1.7  4.52399e+10  0.0  -6.26989e+09  0.0  2.60763e+10  0.0  2.90767e+10  0.0  -2.14981e+11  0.0  -9.99953e+10  0.0 
 1.8  4.52399e+10  0.0  -6.26989e+09  0.0  2.60763e+10  0.0  2.90767e+10  0.0  -2.14981e+11  0.0  -9.99953e+10  0.0 
 1.9  4.52399e+10  0.0  -6.26989e+09  0.0  2.60763e+10  0.0  2.90767e+10  0.0  -2.14981e+11  0.0  -9.99953e+10  0.0 
 2.0  4.52399e+10  0.0  -6.26989e+09  0.0  2.60763e+10  0.0  2.90767e+10  0.0  -2.14981e+11  0.0  -9.99953e+10  0.0 
 2.1  4.52399e+10  0.0  -6.26989e+09  0.0  2.60763e+10  0.0  2.90767e+10  0.0  -2.14981e+11  0.0  -9.99953e+10  0.0 
 2.2  4.52399e+10  0.0  -6.26989e+09  0.0  2.60763e+10  0.0  2.90767e+10  0.0  -2.14981e+11  0.0  -9.99953e+10  0.0 
 2.3  4.52399e+10  0.0  -6.26989e+09  0.0  2.60763e+10  0.0  2.90767e+10  0.0  -2.14981e+11  0.0  -9.99953e+10  0.0 
 2.4  4.52399e+10  0.0  -6.26989e+09  0.0  2.60763e+10  0.0  2.90767e+10  0.0  -2.14981e+11  0.0  -9.99953e+10  0.0 
 2.5  4.52399e+10  0.0  -6.26989e+09  0.0  2.60763e+10  0.0  2.90767e+10  0.0  -2.14981e+11  0.0  -9.99953e+10  0.0 
 2.6  4.52399e+10  0.0  -6.26989e+09  0.0  2.60763e+10  0.0  2.90767e+10  0.0  -2.14981e+11  0.0  -9.99953e+10  0.0 
 2.7  4.52399e+10  0.0  -6.26989e+09  0.0  2.60763e+10  0.0  2.90767e+10  0.0  -2.14981e+11  0.0  -9.99953e+10  0.0 
 2.8  4.52399e+10  0.0  -6.26989e+09  0.0  2.60763e+10  0.0  2.90767e+10  0.0  -2.14981e+11  0.0  -9.99953e+10  0.0 
 2.9  4.52399e+10  0.0  -6.26989e+09  0.0  2.60763e+10  0.0  2.90767e+10  0.0  -2.14981e+11  0.0  -9.99953e+10  0.0 
 3.0  4.52399e+10  0.0  -6.26989e+09  0.0  2.60763e+10  0.0  2.90767e+10  0.0  -2.14981e+11  0.0  -9.99953e+10  0.0 
 3.1  4.52399e+10  0.0  -6.26989e+09  0.0  2.60763e+10  0.0  2.90767e+10  0.0  -2.14981e+11  0.0  -9.99953e+10  0.0 
 3.2  4.52399e+10  0.0  -6.26989e+09  0.0  2.60763e+10  0.0  2.90767e+10  0.0  -2.14981e+11  0.0  -9.99953e+10  0.0 
 3.3  4.52399e+10  0.0  -6.26989e+09  0.0  2.60763e+10  0.0  2.90767e+10  0.0  -2.14981e+11  0.0  -9.99953e+10  0.0 
 3.4  4.52399e+10  0.0  -6.26989e+09  0.0  2.60763e+10  0.0  2.90767e+10  0.0  -2.14981e+11  0.0  -9.99953e+10  0.0 
 3.5  4.52399e+10  0.0  -6.26989e+09  0.0  2.60763e+10  0.0  2.90767e+10  0.0  -2.14981e+11  0.0  -9.99953e+10  0.0 
 3.6  4.52399e+10  0.0  -6.26989e+09  0.0  2.60763e+10  0.0  2.90767e+10  0.0  -2.14981e+11  0.0  -9.99953e+10  0.0 
 3.7  4.52399e+10  0.0  -6.26989e+09  0.0  2.60763e+10  0.0  2.90767e+10  0.0  -2.14981e+11  0.0  -9.99953e+10  0.0 
 3.8  4.52399e+10  0.0  -6.26989e+09  0.0  2.60763e+10  0.0  2.90767e+10  0.0  -2.14981e+11  0.0  -9.99953e+10  0.0 
 3.9  4.52399e+10  0.0  -6.26989e+09  0.0  2.60763e+10  0.0  2.90767e+10  0.0  -2.14981e+11  0.0  -9.99953e+10  0.0 
 4.0  4.52399e+10  0.0  -6.26989e+09  0.0  2.60763e+10  0.0  2.90767e+10  0.0  -2.14981e+11  0.0  -9.99953e+10  0.0 
 4.1  4.52399e+10  0.0  -6.26989e+09  0.0  2.60763e+10  0.0  2.90767e+10  0.0  -2.14981e+11  0.0  -9.99953e+10  0.0 
 4.2  4.52399e+10  0.0  -6.26989e+09  0.0  2.60763e+10  0.0  2.90767e+10  0.0  -2.14981e+11  0.0  -9.99953e+10  0.0 
 4.3  4.52399e+10  0.0  -6.26989e+09  0.0  2.60763e+10  0.0  2.90767e+10  0.0  -2.14981e+11  0.0  -9.99953e+10  0.0 
 4.4  4.52399e+10  0.0  -6.26989e+09  0.0  2.60763e+10  0.0  2.90767e+10  0.0  -2.14981e+11  0.0  -9.99953e+10  0.0 
 4.5  4.52399e+10  0.0  -6.26989e+09  0.0  2.60763e+10  0.0  2.90767e+10  0.0  -2.14981e+11  0.0  -9.99953e+10  0.0 
 4.6  4.52399e+10  0.0  -6.26989e+09  0.0  2.60763e+10  0.0  2.90767e+10  0.0  -2.14981e+11  0.0  -9.99953e+10  0.0 
 4.7  4.52399e+10  0.0  -6.26989e+09  0.0  2.60763e+10  0.0  2.90767e+10  0.0  -2.14981e+11  0.0  -9.99953e+10  0.0 
 4.8  4.52399e+10  0.0  -6.26989e+09  0.0  2.60763e+10  0.0  2.90767e+10  0.0  -2.14981e+11  0.0  -9.99953e+10  0.0 
 4.9  4.52399e+10  0.0  -6.26989e+09  0.0  2.60763e+10  0.0  2.90767e+10  0.0  -2.14981e+11  0.0  -9.99953e+10  0.0 
 5.0  4.52399e+10  0.0  -6.26989e+09  0.0  2.60763e+10  0.0  2.90767e+10  0.0  -2.14981e+11  0.0  -9.99953e+10  0.0 
 5.1  4.52399e+10  0.0  -6.26989e+09  0.0  2.60763e+10  0.0  2.90767e+10  0.0  -2.14981e+11  0.0  -9.99953e+10  0.0 
 5.2  4.52399e+10  0.0  -6.26989e+09  0.0  2.60763e+10  0.0  2.90767e+10  0.0  -2.14981e+11  0.0  -9.99953e+10  0.0 
 5.3  4.52399e+10  0.0  -6.26989e+09  0.0  2.60763e+10  0.0  2.90767e+10  0.0  -2.14981e+11  0.0  -9.99953e+10  0.0 
 5.4  4.52399e+10  0.0  -6.26989e+09  0.0  2.60763e+10  0.0  2.90767e+10  0.0  -2.14981e+11  0.0  -9.99953e+10  0.0 
 5.5  4.52399e+10  0.0  -6.26989e+09  0.0  2.60763e+10  0.0  2.90767e+10  0.0  -2.14981e+11  0.0  -9.99953e+10  0.0 
 5.6  4.52399e+10  0.0  -6.26989e+09  0.0  2.60763e+10  0.0  2.90767e+10  0.0  -2.14981e+11  0.0  -9.99953e+10  0.0 
 5.7  4.52399e+10  0.0  -6.26989e+09  0.0  2.60763e+10  0.0  2.90767e+10  0.0  -2.14981e+11  0.0  -9.99953e+10  0.0 
 5.8  4.52399e+10  0.0  -6.26989e+09  0.0  2.60763e+10  0.0  2.90767e+10  0.0  -2.14981e+11  0.0  -9.99953e+10  0.0 
 5.9  4.52399e+10  0.0  -6.26989e+09  0.0  2.60763e+10  0.0  2.90767e+10  0.0  -2.14981e+11  0.0  -9.99953e+10  0.0 
 6.0  4.52399e+10  0.0  -6.26989e+09  0.0  2.60763e+10  0.0  2.90767e+10  0.0  -2.14981e+11  0.0  -9.99953e+10  0.0 
 6.1  4.52399e+10  0.0  -6.26989e+09  0.0  2.60763e+10  0.0  2.90767e+10  0.0  -2.14981e+11  0.0  -9.99953e+10  0.0 
 6.2  4.52399e+10  0.0  -6.26989e+09  0.0  2.60763e+10  0.0  2.90767e+10  0.0  -2.14981e+11  0.0  -9.99953e+10  0.0 
 6.3  4.52399e+10  0.0  -6.26989e+09  0.0  2.60763e+10  0.0  2.90767e+10  0.0  -2.14981e+11  0.0  -9.99953e+10  0.0 
 6.4  4.52399e+10  0.0  -6.26989e+09  0.0  2.60763e+10  0.0  2.90767e+10  0.0  -2.14981e+11  0.0  -9.99953e+10  0.0 
 6.5  4.52399e+10  0.0  -6.26989e+09  0.0  2.60763e+10  0.0  2.90767e+10  0.0  -2.14981e+11  0.0  -9.99953e+10  0.0 
 6.6  4.52399e+10  0.0  -6.26989e+09  0.0  2.60763e+10  0.0  2.90767e+10  0.0  -2.14981e+11  0.0  -9.99953e+10  0.0 
 6.7  4.52399e+10  0.0  -6.26989e+09  0.0  2.60763e+10  0.0  2.90767e+10  0.0  -2.14981e+11  0.0  -9.99953e+10  0.0 
 6.8  4.52399e+10  0.0  -6.26989e+09  0.0  2.60763e+10  0.0  2.90767e+10  0.0  -2.14981e+11  0.0  -9.99953e+10  0.0 
 6.9  4.52399e+10  0.0  -6.26989e+09  0.0  2.60763e+10  0.0  2.90767e+10  0.0  -2.14981e+11  0.0  -9.99953e+10  0.0 
 7.0  4.52399e+10  0.0  -6.26989e+09  0.0  2.60763e+10  0.0  2.90767e+10  0.0  -2.14981e+11  0.0  -9.99953e+10  0.0 
 7.1  4.52399e+10  0.0  -6.26989e+09  0.0  2.60763e+10  0.0  2.90767e+10  0.0  -2.14981e+11  0.0  -9.99953e+10  0.0 
 7.2  4.52399e+10  0.0  -6.26989e+09  0.0  2.60763e+10  0.0  2.90767e+10  0.0  -2.14981e+11  0.0  -9.99953e+10  0.0 
 7.3  4.52399e+10  0.0  -6.26989e+09  0.0  2.60763e+10  0.0  2.90767e+10  0.0  -2.14981e+11  0.0  -9.99953e+10  0.0 
 7.4  4.52399e+10  0.0  -6.26989e+09  0.0  2.60763e+10  0.0  2.90767e+10  0.0  -2.14981e+11  0.0  -9.99953e+10  0.0 
 7.5  4.52399e+10  0.0  -6.26989e+09  0.0  2.60763e+10  0.0  2.90767e+10  0.0  -2.14981e+11  0.0  -9.99953e+10  0.0 
 7.6  4.52399e+10  0.0  -6.26989e+09  0.0  2.60763e+10  0.0  2.90767e+10  0.0  -2.14981e+11  0.0  -9.99953e+10  0.0 
 7.7  4.52399e+10  0.0  -6.26989e+09  0.0  2.60763e+10  0.0  2.90767e+10  0.0  -2.14981e+11  0.0  -9.99953e+10  0.0 
 7.8  4.52399e+10  0.0  -6.26989e+09  0.0  2.60763e+10  0.0  2.90767e+10  0.0  -2.14981e+11  0.0  -9.99953e+10  0.0 
 7.9  4.52399e+10  0.0  -6.26989e+09  0.0  2.60763e+10  0.0  2.90767e+10  0.0  -2.14981e+11  0.0  -9.99953e+10  0.0 
 8.0  4.52399e+10  0.0  -6.26989e+09  0.0  2.60763e+10  0.0  2.90767e+10  0.0  -2.14981e+11  0.0  -9.99953e+10  0.0 
 8.1  4.52399e+10  0.0  -6.26989e+09  0.0  2.60763e+10  0.0  2.90767e+10  0.0  -2.14981e+11  0.0  -9.99953e+10  0.0 
 8.2  4.52399e+10  0.0  -6.26989e+09  0.0  2.60763e+10  0.0  2.90767e+10  0.0  -2.14981e+11  0.0  -9.99953e+10  0.0 
 8.3  4.52399e+10  0.0  -6.26989e+09  0.0  2.60763e+10  0.0  2.90767e+10  0.0  -2.14981e+11  0.0  -9.99953e+10  0.0 
 8.4  4.52399e+10  0.0  -6.26989e+09  0.0  2.60763e+10  0.0  2.90767e+10  0.0  -2.14981e+11  0.0  -9.99953e+10  0.0 
 8.5  4.52399e+10  0.0  -6.26989e+09  0.0  2.60763e+10  0.0  2.90767e+10  0.0  -2.14981e+11  0.0  -9.99953e+10  0.0 
 8.6  4.52399e+10  0.0  -6.26989e+09  0.0  2.60763e+10  0.0  2.90767e+10  0.0  -2.14981e+11  0.0  -9.99953e+10  0.0 
 8.7  4.52399e+10  0.0  -6.26989e+09  0.0  2.60763e+10  0.0  2.90767e+10  0.0  -2.14981e+11  0.0  -9.99953e+10  0.0 
 8.8  4.52399e+10  0.0  -6.26989e+09  0.0  2.60763e+10  0.0  2.90767e+10  0.0  -2.14981e+11  0.0  -9.99953e+10  0.0 
 8.9  4.52399e+10  0.0  -6.26989e+09  0.0  2.60763e+10  0.0  2.90767e+10  0.0  -2.14981e+11  0.0  -9.99953e+10  0.0 
 9.0  4.52399e+10  0.0  -6.26989e+09  0.0  2.60763e+10  0.0  2.90767e+10  0.0  -2.14981e+11  0.0  -9.99953e+10  0.0 
 9.1  4.52399e+10  0.0  -6.26989e+09  0.0  2.60763e+10  0.0  2.90767e+10  0.0  -2.14981e+11  0.0  -9.99953e+10  0.0 
 9.2  4.52399e+10  0.0  -6.26989e+09  0.0  2.60763e+10  0.0  2.90767e+10  0.0  -2.14981e+11  0.0  -9.99953e+10  0.0 
 9.3  4.52399e+10  0.0  -6.26989e+09  0.0  2.60763e+10  0.0  2.90767e+10  0.0  -2.14981e+11  0.0  -9.99953e+10  0.0 
 9.4  4.52399e+10  0.0  -6.26989e+09  0.0  2.60763e+10  0.0  2.90767e+10  0.0  -2.14981e+11  0.0  -9.99953e+10  0.0 
 9.5  4.52399e+10  0.0  -6.26989e+09  0.0  2.60763e+10  0.0  2.90767e+10  0.0  -2.14981e+11  0.0  -9.99953e+10  0.0 
 9.6  4.52399e+10  0.0  -6.26989e+09  0.0  2.60763e+10  0.0  2.90767e+10  0.0  -2.14981e+11  0.0  -9.99953e+10  0.0 
 9.7  4.52399e+10  0.0  -6.26989e+09  0.0  2.60763e+10  0.0  2.90767e+10  0.0  -2.14981e+11  0.0  -9.99953e+10  0.0 
 9.8  4.52399e+10  0.0  -6.26989e+09  0.0  2.60763e+10  0.0  2.90767e+10  0.0  -2.14981e+11  0.0  -9.99953e+10  0.0 
 9.9  4.52399e+10  0.0  -6.26989e+09  0.0  2.60763e+10  0.0  2.90767e+10  0.0  -2.14981e+11  0.0  -9.99953e+10  0.0 
Zone t="DoF 3",I=	100,F=POINT
 0.0  3.6933e+10  0.0  -6.27113e+10  0.0  -6.44447e+08  0.0  -1.61152e+11  0.0  -9.44069e+10  0.0  -2.72219e+11  0.0 
 0.1  3.6933e+10  0.0  -6.27113e+10  0.0  -6.44447e+08  0.0  -1.61152e+11  0.0  -9.44069e+10  0.0  -2.72219e+11  0.0 
 0.2  3.6933e+10  0.0  -6.27113e+10  0.0  -6.44447e+08  0.0  -1.61152e+11  0.0  -9.44069e+10  0.0  -2.72219e+11  0.0 
 0.3  3.6933e+10  0.0  -6.27113e+10  0.0  -6.44447e+08  0.0  -1.61152e+11  0.0  -9.44069e+10  0.0  -2.72219e+11  0.0 
 0.4  3.6933e+10  0.0  -6.27113e+10  0.0  -6.44447e+08  0.0  -1.61152e+11  0.0  -9.44069e+10  0.0  -2.72219e+11  0.0 
 0.5  3.6933e+10  0.0  -6.27113e+10  0.0  -6.44447e+08  0.0  -1.61152e+11  0.0  -9.44069e+10  0.0  -2.72219e+11  0.0 
 0.6  3.6933e+10  0.0  -6.27113e+10  0.0  -6.44447e+08  0.0  -1.61152e+11  0.0  -9.44069e+10  0.0  -2.72219e+11  0.0 
 0.7  3.6933e+10  0.0  -6.27113e+10  0.0  -6.44447e+08  0.0  -1.61152e+11  0.0  -9.44069e+10  0.0  -2.72219e+11  0.0 
 0.8  3.6933e+10  0.0  -6.27113e+10  0.0  -6.44447e+08  0.0  -1.61152e+11  0.0  -9.44069e+10  0.0  -2.72219e+11  0.0 
 0.9  3.6933e+10  0.0  -6.27113e+10  0.0  -6.44447e+08  0.0  -1.61152e+11  0.0  -9.44069e+10  0.0  -2.72219e+11  0.0 
 1.0  3.6933e+10  0.0  -6.27113e+10  0.0  -6.44447e+08  0.0  -1.61152e+11  0.0  -9.44069e+10  0.0  -2.72219e+11  0.0 
 1.1  3.6933e+10  0.0  -6.27113e+10  0.0  -6.44447e+08  0.0  -1.61152e+11  0.0  -9.44069e+10  0.0  -2.72219e+11  0.0 
 1.2  3.6933e+10  0.0  -6.27113e+10  0.0  -6.44447e+08  0.0  -1.61152e+11  0.0  -9.44069e+10  0.0  -2.72219e+11  0.0 
 1.3  3.6933e+10  0.0  -6.27113e+10  0.0  -6.44447e+08  0.0  -1.61152e+11  0.0  -9.44069e+10  0.0  -2.72219e+11  0.0 
 1.4  3.6933e+10  0.0  -6.27113e+10  0.0  -6.44447e+08  0.0  -1.61152e+11  0.0  -9.44069e+10  0.0  -2.72219e+11  0.0 
 1.5  3.6933e+10  0.0  -6.27113e+10  0.0  -6.44447e+08  0.0  -1.61152e+11  0.0  -9.44069e+10  0.0  -2.72219e+11  0.0 
 1.6  3.6933e+10  0.0  -6.27113e+10  0.0  -6.44447e+08  0.0  -1.61152e+11  0.0  -9.44069e+10  0.0  -2.72219e+11  0.0 
 1.7  3.6933e+10  0.0  -6.27113e+10  0.0  -6.44447e+08  0.0  -1.61152e+11  0.0  -9.44069e+10  0.0  -2.72219e+11  0.0 
 1.8  3.6933e+10  0.0  -6.27113e+10  0.0  -6.44447e+08  0.0  -1.61152e+11  0.0  -9.44069e+10  0.0  -2.72219e+11  0.0 
 1.9  3.6933e+10  0.0  -6.27113e+10  0.0  -6.44447e+08  0.0  -1.61152e+11  0.0  -9.44069e+10  0.0  -2.72219e+11  0.0 
 2.0  3.6933e+10  0.0  -6.27113e+10  0.0  -6.44447e+08  0.0  -1.61152e+11  0.0  -9.44069e+10  0.0  -2.72219e+11  0.0 
 2.1  3.6933e+10  0.0  -6.27113e+10  0.0  -6.44447e+08  0.0  -1.61152e+11  0.0  -9.44069e+10  0.0  -2.72219e+11  0.0 
 2.2  3.6933e+10  0.0  -6.27113e+10  0.0  -6.44447e+08  0.0  -1.61152e+11  0.0  -9.44069e+10  0.0  -2.72219e+11  0.0 
 2.3  3.6933e+10  0.0  -6.27113e+10  0.0  -6.44447e+08  0.0  -1.61152e+11  0.0  -9.44069e+10  0.0  -2.72219e+11  0.0 
 2.4  3.6933e+10  0.0  -6.27113e+10  0.0  -6.44447e+08  0.0  -1.61152e+11  0.0  -9.44069e+10  0.0  -2.72219e+11  0.0 
 2.5  3.6933e+10  0.0  -6.27113e+10  0.0  -6.44447e+08  0.0  -1.61152e+11  0.0  -9.44069e+10  0.0  -2.72219e+11  0.0 
 2.6  3.6933e+10  0.0  -6.27113e+10  0.0  -6.44447e+08  0.0  -1.61152e+11  0.0  -9.44069e+10  0.0  -2.72219e+11  0.0 
 2.7  3.6933e+10  0.0  -6.27113e+10  0.0  -6.44447e+08  0.0  -1.61152e+11  0.0  -9.44069e+10  0.0  -2.72219e+11  0.0 
 2.8  3.6933e+10  0.0  -6.27113e+10  0.0  -6.44447e+08  0.0  -1.61152e+11  0.0  -9.44069e+10  0.0  -2.72219e+11  0.0 
 2.9  3.6933e+10  0.0  -6.27113e+10  0.0  -6.44447e+08  0.0  -1.61152e+11  0.0  -9.44069e+10  0.0  -2.72219e+11  0.0 
 3.0  3.6933e+10  0.0  -6.27113e+10  0.0  -6.44447e+08  0.0  -1.61152e+11  0.0  -9.44069e+10  0.0  -2.72219e+11  0.0 
 3.1  3.6933e+10  0.0  -6.27113e+10  0.0  -6.44447e+08  0.0  -1.61152e+11  0.0  -9.44069e+10  0.0  -2.72219e+11  0.0 
 3.2  3.6933e+10  0.0  -6.27113e+10  0.0  -6.44447e+08  0.0  -1.61152e+11  0.0  -9.44069e+10  0.0  -2.72219e+11  0.0 
 3.3  3.6933e+10  0.0  -6.27113e+10  0.0  -6.44447e+08  0.0  -1.61152e+11  0.0  -9.44069e+10  0.0  -2.72219e+11  0.0 
 3.4  3.6933e+10  0.0  -6.27113e+10  0.0  -6.44447e+08  0.0  -1.61152e+11  0.0  -9.44069e+10  0.0  -2.72219e+11  0.0 
 3.5  3.6933e+10  0.0  -6.27113e+10  0.0  -6.44447e+08  0.0  -1.61152e+11  0.0  -9.44069e+10  0.0  -2.72219e+11  0.0 
 3.6  3.6933e+10  0.0  -6.27113e+10  0.0  -6.44447e+08  0.0  -1.61152e+11  0.0  -9.44069e+10  0.0  -2.72219e+11  0.0 
 3.7  3.6933e+10  0.0  -6.27113e+10  0.0  -6.44447e+08  0.0  -1.61152e+11  0.0  -9.44069e+10  0.0  -2.72219e+11  0.0 
 3.8  3.6933e+10  0.0  -6.27113e+10  0.0  -6.44447e+08  0.0  -1.61152e+11  0.0  -9.44069e+10  0.0  -2.72219e+11  0.0 
 3.9  3.6933e+10  0.0  -6.27113e+10  0.0  -6.44447e+08  0.0  -1.61152e+11  0.0  -9.44069e+10  0.0  -2.72219e+11  0.0 
 4.0  3.6933e+10  0.0  -6.27113e+10  0.0  -6.44447e+08  0.0  -1.61152e+11  0.0  -9.44069e+10  0.0  -2.72219e+11  0.0 
 4.1  3.6933e+10  0.0  -6.27113e+10  0.0  -6.44447e+08  0.0  -1.61152e+11  0.0  -9.44069e+10  0.0  -2.72219e+11  0.0 
 4.2  3.6933e+10  0.0  -6.27113e+10  0.0  -6.44447e+08  0.0  -1.61152e+11  0.0  -9.44069e+10  0.0  -2.72219e+11  0.0 
 4.3  3.6933e+10  0.0  -6.27113e+10  0.0  -6.44447e+08  0.0  -1.61152e+11  0.0  -9.44069e+10  0.0  -2.72219e+11  0.0 
 4.4  3.6933e+10  0.0  -6.27113e+10  0.0  -6.44447e+08  0.0  -1.61152e+11  0.0  -9.44069e+10  0.0  -2.72219e+11  0.0 
 4.5  3.6933e+10  0.0  -6.27113e+10  0.0  -6.44447e+08  0.0  -1.61152e+11  0.0  -9.44069e+10  0.0  -2.72219e+11  0.0 
 4.6  3.6933e+10  0.0  -6.27113e+10  0.0  -6.44447e+08  0.0  -1.61152e+11  0.0  -9.44069e+10  0.0  -2.72219e+11  0.0 
 4.7  3.6933e+10  0.0  -6.27113e+10  0.0  -6.44447e+08  0.0  -1.61152e+11  0.0  -9.44069e+10  0.0  -2.72219e+11  0.0 
 4.8  3.6933e+10  0.0  -6.27113e+10  0.0  -6.44447e+08  0.0  -1.61152e+11  0.0  -9.44069e+10  0.0  -2.72219e+11  0.0 
 4.9  3.6933e+10  0.0  -6.27113e+10  0.0  -6.44447e+08  0.0  -1.61152e+11  0.0  -9.44069e+10  0.0  -2.72219e+11  0.0 
 5.0  3.6933e+10  0.0  -6.27113e+10  0.0  -6.44447e+08  0.0  -1.61152e+11  0.0  -9.44069e+10  0.0  -2.72219e+11  0.0 
 5.1  3.6933e+10  0.0  -6.27113e+10  0.0  -6.44447e+08  0.0  -1.61152e+11  0.0  -9.44069e+10  0.0  -2.72219e+11  0.0 
 5.2  3.6933e+10  0.0  -6.27113e+10  0.0  -6.44447e+08  0.0  -1.61152e+11  0.0  -9.44069e+10  0.0  -2.72219e+11  0.0 